 *******************************************************************************
 ** Site#: 14399           For non-commercial use only        Version 13.159M **
 *******************************************************************************
 ** Cite this work as: MOPAC2012, James J. P. Stewart, Stewart Computational  **
 ** Chemistry, Version 13.159M web: HTTP://OpenMOPAC.net  Days remaining:   5 **
 *******************************************************************************
 **                                                                           **
 **                                MOPAC2012                                  **
 **                                                                           **
 *******************************************************************************

                            PM3 CALCULATION RESULTS


 *******************************************************************************
 *  CALCULATION DONE:                                Tue Jun  3 11:51:46 2014  *
 *  PM3      - The PM3 Hamiltonian to be used
 *  PRECISE  - CRITERIA TO BE INCREASED BY 100 TIMES
 *  NOSYM    - POINT-GROUP SYMMETRY SET TO C1
 *  T=       - A TIME OF 172800.0 SECONDS REQUESTED
 *  DUMP=N   - RESTART FILE WRITTEN EVERY  7200.000 SECONDS
 *******************************************************************************
pm3  precise nosym
 InChI=1S/C6H10/c1-2-6-4-3-5-6/h4H,2-3,5H2,1H3

   ATOM   CHEMICAL          X               Y               Z
  NUMBER   SYMBOL      (ANGSTROMS)     (ANGSTROMS)     (ANGSTROMS)
 
     1       C          1.14090000  *   0.96060000  *  -0.01820000  *
     2       C         -1.13870000  *  -0.52460000  *  -0.75610000  *
     3       C          2.14170000  *  -0.00500000  *   0.63000000  *
     4       C         -2.20790000  *   0.27440000  *  -0.02390000  *
     5       C          0.21970000  *  -0.25870000  *  -0.18960000  *
     6       C          1.14020000  *  -1.01490000  *   0.37820000  *
     7       H         -1.37320000  *  -1.61140000  *  -0.68110000  *
     8       H         -1.13530000  *  -0.24480000  *  -1.83390000  *
     9       H          2.30200000  *   0.16400000  *   1.71980000  *
    10       H          3.06760000  *  -0.17440000  *   0.03330000  *
    11       H          1.47330000  *   1.37670000  *  -0.99800000  *
    12       H          0.71300000  *   1.71550000  *   0.68220000  *
    13       H         -2.23730000  *   0.00050000  *   1.05570000  *
    14       H         -3.20730000  *   0.05690000  *  -0.46430000  *
    15       H         -2.02050000  *   1.36880000  *  -0.11670000  *
    16       H          1.12170000  *  -2.08350000  *   0.58280000  *
 


          CARTESIAN COORDINATES 

    NO.       ATOM         X         Y         Z

     1         C        1.1409    0.9606   -0.0182
     2         C       -1.1387   -0.5246   -0.7561
     3         C        2.1417   -0.0050    0.6300
     4         C       -2.2079    0.2744   -0.0239
     5         C        0.2197   -0.2587   -0.1896
     6         C        1.1402   -1.0149    0.3782
     7         H       -1.3732   -1.6114   -0.6811
     8         H       -1.1353   -0.2448   -1.8339
     9         H        2.3020    0.1640    1.7198
    10         H        3.0676   -0.1744    0.0333
    11         H        1.4733    1.3767   -0.9980
    12         H        0.7130    1.7155    0.6822
    13         H       -2.2373    0.0005    1.0557
    14         H       -3.2073    0.0569   -0.4643
    15         H       -2.0205    1.3688   -0.1167
    16         H        1.1217   -2.0835    0.5828

  H: (PM3): J. J. P. STEWART, J. COMP. CHEM. 10, 209 (1989).
  C: (PM3): J. J. P. STEWART, J. COMP. CHEM. 10, 209 (1989).

           Empirical Formula: C6 H10  =    16 atoms



      MOLECULAR POINT GROUP   :   C1  


      RHF CALCULATION, NO. OF DOUBLY OCCUPIED LEVELS =   17

      Geometry optimization using EF

          DIAGONAL MATRIX USED AS START HESSIAN

 CYCLE:     1 TIME:   0.005 TIME LEFT:  2.00D  GRAD.:   160.623 HEAT: 31.17275
 CYCLE:     2 TIME:   0.006 TIME LEFT:  2.00D  GRAD.:   172.082 HEAT: 29.78287
 CYCLE:     3 TIME:   0.004 TIME LEFT:  2.00D  GRAD.:    90.559 HEAT: 25.80716
 CYCLE:     4 TIME:   0.007 TIME LEFT:  2.00D  GRAD.:    68.382 HEAT: 24.64854
 CYCLE:     5 TIME:   0.003 TIME LEFT:  2.00D  GRAD.:    68.282 HEAT: 24.32843
 CYCLE:     6 TIME:   0.003 TIME LEFT:  2.00D  GRAD.:    66.390 HEAT: 24.03890
 CYCLE:     7 TIME:   0.003 TIME LEFT:  2.00D  GRAD.:    63.955 HEAT: 23.83813
 CYCLE:     8 TIME:   0.006 TIME LEFT:  2.00D  GRAD.:    23.476 HEAT: 22.88139
 CYCLE:     9 TIME:   0.006 TIME LEFT:  2.00D  GRAD.:    20.740 HEAT: 22.79902
 CYCLE:    10 TIME:   0.003 TIME LEFT:  2.00D  GRAD.:    18.987 HEAT: 22.75980
 CYCLE:    11 TIME:   0.003 TIME LEFT:  2.00D  GRAD.:    20.904 HEAT: 22.74490
 CYCLE:    12 TIME:   0.003 TIME LEFT:  2.00D  GRAD.:    14.386 HEAT: 22.66867
 CYCLE:    13 TIME:   0.003 TIME LEFT:  2.00D  GRAD.:    13.836 HEAT: 22.62288
 CYCLE:    14 TIME:   0.003 TIME LEFT:  2.00D  GRAD.:    11.275 HEAT: 22.58751
 CYCLE:    15 TIME:   0.003 TIME LEFT:  2.00D  GRAD.:    10.807 HEAT: 22.55508
 CYCLE:    16 TIME:   0.006 TIME LEFT:  2.00D  GRAD.:     7.916 HEAT: 22.52272
 CYCLE:    17 TIME:   0.003 TIME LEFT:  2.00D  GRAD.:     6.282 HEAT: 22.48200
 CYCLE:    18 TIME:   0.003 TIME LEFT:  2.00D  GRAD.:     6.870 HEAT: 22.43879
 CYCLE:    19 TIME:   0.003 TIME LEFT:  2.00D  GRAD.:     7.873 HEAT: 22.38151
 CYCLE:    20 TIME:   0.003 TIME LEFT:  2.00D  GRAD.:     5.235 HEAT: 22.34862
 CYCLE:    21 TIME:   0.003 TIME LEFT:  2.00D  GRAD.:     4.674 HEAT: 22.33708
 CYCLE:    22 TIME:   0.003 TIME LEFT:  2.00D  GRAD.:     3.001 HEAT: 22.32446
 CYCLE:    23 TIME:   0.003 TIME LEFT:  2.00D  GRAD.:     2.551 HEAT: 22.30809
 CYCLE:    24 TIME:   0.003 TIME LEFT:  2.00D  GRAD.:     1.926 HEAT: 22.30105
 CYCLE:    25 TIME:   0.003 TIME LEFT:  2.00D  GRAD.:     1.279 HEAT: 22.29783
 CYCLE:    26 TIME:   0.003 TIME LEFT:  2.00D  GRAD.:     1.167 HEAT: 22.29515
 CYCLE:    27 TIME:   0.003 TIME LEFT:  2.00D  GRAD.:     1.581 HEAT: 22.29098
 CYCLE:    28 TIME:   0.003 TIME LEFT:  2.00D  GRAD.:     1.415 HEAT: 22.28866
 CYCLE:    29 TIME:   0.003 TIME LEFT:  2.00D  GRAD.:     1.368 HEAT: 22.28620
 CYCLE:    30 TIME:   0.003 TIME LEFT:  2.00D  GRAD.:     1.420 HEAT: 22.28341
 CYCLE:    31 TIME:   0.003 TIME LEFT:  2.00D  GRAD.:     1.529 HEAT: 22.27965
 CYCLE:    32 TIME:   0.003 TIME LEFT:  2.00D  GRAD.:     1.420 HEAT: 22.27578
 CYCLE:    33 TIME:   0.003 TIME LEFT:  2.00D  GRAD.:     1.401 HEAT: 22.27188
 CYCLE:    34 TIME:   0.003 TIME LEFT:  2.00D  GRAD.:     1.344 HEAT: 22.26841
 CYCLE:    35 TIME:   0.003 TIME LEFT:  2.00D  GRAD.:     1.091 HEAT: 22.26580
 CYCLE:    36 TIME:   0.003 TIME LEFT:  2.00D  GRAD.:     0.853 HEAT: 22.26398
 CYCLE:    37 TIME:   0.003 TIME LEFT:  2.00D  GRAD.:     0.871 HEAT: 22.26246
 CYCLE:    38 TIME:   0.003 TIME LEFT:  2.00D  GRAD.:     0.922 HEAT: 22.26084
 CYCLE:    39 TIME:   0.003 TIME LEFT:  2.00D  GRAD.:     0.820 HEAT: 22.25930
 CYCLE:    40 TIME:   0.003 TIME LEFT:  2.00D  GRAD.:     0.718 HEAT: 22.25773
 CYCLE:    41 TIME:   0.003 TIME LEFT:  2.00D  GRAD.:     0.737 HEAT: 22.25642
 CYCLE:    42 TIME:   0.003 TIME LEFT:  2.00D  GRAD.:     0.900 HEAT: 22.25465
 CYCLE:    43 TIME:   0.003 TIME LEFT:  2.00D  GRAD.:     0.825 HEAT: 22.25321
 CYCLE:    44 TIME:   0.003 TIME LEFT:  2.00D  GRAD.:     0.476 HEAT: 22.25183
 CYCLE:    45 TIME:   0.003 TIME LEFT:  2.00D  GRAD.:     0.268 HEAT: 22.25151
 CYCLE:    46 TIME:   0.003 TIME LEFT:  2.00D  GRAD.:     0.241 HEAT: 22.25132
 CYCLE:    47 TIME:   0.003 TIME LEFT:  2.00D  GRAD.:     0.261 HEAT: 22.25123
 CYCLE:    48 TIME:   0.003 TIME LEFT:  2.00D  GRAD.:     0.433 HEAT: 22.25091
 CYCLE:    49 TIME:   0.003 TIME LEFT:  2.00D  GRAD.:     0.394 HEAT: 22.25062
 CYCLE:    50 TIME:   0.003 TIME LEFT:  2.00D  GRAD.:     0.371 HEAT: 22.25027
 CYCLE:    51 TIME:   0.003 TIME LEFT:  2.00D  GRAD.:     0.407 HEAT: 22.24983
 CYCLE:    52 TIME:   0.003 TIME LEFT:  2.00D  GRAD.:     0.379 HEAT: 22.24947
 CYCLE:    53 TIME:   0.003 TIME LEFT:  2.00D  GRAD.:     0.353 HEAT: 22.24907
 CYCLE:    54 TIME:   0.004 TIME LEFT:  2.00D  GRAD.:     0.254 HEAT: 22.24891
 CYCLE:    55 TIME:   0.004 TIME LEFT:  2.00D  GRAD.:     0.193 HEAT: 22.24871
 CYCLE:    56 TIME:   0.004 TIME LEFT:  2.00D  GRAD.:     0.130 HEAT: 22.24866
 CYCLE:    57 TIME:   0.003 TIME LEFT:  2.00D  GRAD.:     0.090 HEAT: 22.24861
 CYCLE:    58 TIME:   0.003 TIME LEFT:  2.00D  GRAD.:     0.083 HEAT: 22.24859
 CYCLE:    59 TIME:   0.003 TIME LEFT:  2.00D  GRAD.:     0.051 HEAT: 22.24858
 CYCLE:    60 TIME:   0.003 TIME LEFT:  2.00D  GRAD.:     0.034 HEAT: 22.24857

     RMS GRADIENT =  0.03360  IS LESS THAN CUTOFF =  0.05000



 -------------------------------------------------------------------------------
pm3  precise nosym
 InChI=1S/C6H10/c1-2-6-4-3-5-6/h4H,2-3,5H2,1H3



     GEOMETRY OPTIMISED USING EIGENVECTOR FOLLOWING (EF).     
     SCF FIELD WAS ACHIEVED                                   


                              PM3 CALCULATION
                                                       MOPAC2012 (Version: 13.159M)
                                                       Tue Jun  3 11:51:47 2014
                                                       No. of days left =   5




          FINAL HEAT OF FORMATION =         22.24857 KCAL/MOL =      93.08803 KJ/MOL


          TOTAL ENERGY            =       -864.20449 EV
          ELECTRONIC ENERGY       =      -3761.79091 EV  POINT GROUP:     C1  
          CORE-CORE REPULSION     =       2897.58641 EV
          COSMO AREA              =        137.30 SQUARE ANGSTROMS
          COSMO VOLUME            =        126.69 CUBIC ANGSTROMS

          GRADIENT NORM           =          0.03360
          IONIZATION POTENTIAL    =          9.516499 EV
          HOMO LUMO ENERGIES (EV) =         -9.516  0.989
          NO. OF FILLED LEVELS    =         17
          MOLECULAR WEIGHT        =         82.145

          MOLECULAR DIMENSIONS (Angstroms)

            Atom       Atom       Distance
            H    14    H    10     6.26974
            H    16    H    11     3.93083
            H     8    H     9     3.12189


          SCF CALCULATIONS        =         66
          COMPUTATION TIME        =          0.217 SECONDS




   ATOM   CHEMICAL          X               Y               Z
  NUMBER   SYMBOL      (ANGSTROMS)     (ANGSTROMS)     (ANGSTROMS)
 
     1       C          1.07071304  *   0.94640937  *  -0.05885681  *
     2       C         -1.11764200  *  -0.49464430  *  -0.76598530  *
     3       C          2.12757651  *   0.01679646  *   0.62951708  *
     4       C         -2.17122527  *   0.28772915  *  -0.00925793  *
     5       C          0.21657768  *  -0.30772130  *  -0.18339692  *
     6       C          1.13034832  *  -1.10632488  *   0.41085447  *
     7       H         -1.37281025  *  -1.57234523  *  -0.77757333  *
     8       H         -1.08869414  *  -0.17433423  *  -1.82676584  *
     9       H          2.34802875  *   0.25027532  *   1.68059625  *
    10       H          3.08125435  *  -0.09075896  *   0.09391989  *
    11       H          1.38438892  *   1.39719875  *  -1.01073492  *
    12       H          0.64861677  *   1.73886407  *   0.57550386  *
    13       H         -2.26580988  *  -0.05977855  *   1.02754989  *
    14       H         -3.15579853  *   0.18547342  *  -0.48269811  *
    15       H         -1.92988119  *   1.35845919  *   0.02715243  *
    16       H          1.19124091  *  -2.15560101  *   0.66430739  *

           Empirical Formula: C6 H10  =    16 atoms



      MOLECULAR POINT GROUP   :   C1  


                  EIGENVALUES  
 -39.85267 -33.46951 -25.37247 -24.34377 -21.66599 -17.56329 -16.71147 -15.91999
 -15.64403 -14.42944 -13.57065 -13.12104 -12.41634 -12.27698 -11.97918 -11.55565
  -9.51650   0.98887   3.27028   3.34651   3.50429   3.83232   3.94579   4.01586
   4.09714   4.21572   4.41793   4.58340   4.69420   4.81120   4.89215   5.04371
   5.37189   6.25335


              NET ATOMIC CHARGES AND DIPOLE CONTRIBUTIONS

  ATOM NO.   TYPE          CHARGE      No. of ELECS.   s-Pop       p-Pop       
    1          C          -0.072231        4.0722     1.16817     2.90406
    2          C          -0.022715        4.0227     1.13165     2.89107
    3          C          -0.078985        4.0790     1.16695     2.91203
    4          C          -0.104835        4.1048     1.13703     2.96781
    5          C          -0.148355        4.1484     1.22271     2.92564
    6          C          -0.165910        4.1659     1.21764     2.94827
    7          H           0.051902        0.9481     0.94810
    8          H           0.053671        0.9463     0.94633
    9          H           0.060959        0.9390     0.93904
   10          H           0.060803        0.9392     0.93920
   11          H           0.061097        0.9389     0.93890
   12          H           0.062064        0.9379     0.93794
   13          H           0.040498        0.9595     0.95950
   14          H           0.036769        0.9632     0.96323
   15          H           0.039469        0.9605     0.96053
   16          H           0.125798        0.8742     0.87420
 DIPOLE           X         Y         Z       TOTAL
 POINT-CHG.    -0.099     0.190    -0.076     0.227
 HYBRID         0.018    -0.020     0.020     0.033
 SUM           -0.081     0.169    -0.056     0.196


          ATOMIC ORBITAL ELECTRON POPULATIONS

    Atom      s        px        py        pz   
    1  C   1.16817   0.95596   0.94736   1.00074
    2  C   1.13165   0.91410   0.99737   0.97960
    3  C   1.16695   0.95977   0.95253   0.99973
    4  C   1.13703   0.97365   0.99647   0.99768
    5  C   1.22271   0.95912   0.96848   0.99803
    6  C   1.21764   0.96614   0.97384   1.00829
    7  H   0.94810
    8  H   0.94633
    9  H   0.93904
   10  H   0.93920
   11  H   0.93890
   12  H   0.93794
   13  H   0.95950
   14  H   0.96323
   15  H   0.96053
   16  H   0.87420
 *******************************************************************************
 ** Site#: 14399           For non-commercial use only        Version 13.159M **
 *******************************************************************************
 ** Cite this work as: MOPAC2012, James J. P. Stewart, Stewart Computational  **
 ** Chemistry, Version 13.159M web: HTTP://OpenMOPAC.net  Days remaining:   5 **
 *******************************************************************************
 **                                                                           **
 **                                MOPAC2012                                  **
 **                                                                           **
 *******************************************************************************

                            PM3 CALCULATION RESULTS


 *******************************************************************************
 *  CALCULATION DONE:                                Tue Jun  3 11:51:47 2014  *
 *  PM3      - The PM3 Hamiltonian to be used
 *  OLDGEO   - PREVIOUS GEOMETRY TO BE USED
 *  PRECISE  - CRITERIA TO BE INCREASED BY 100 TIMES
 *  NOSYM    - POINT-GROUP SYMMETRY SET TO C1
 *  T=       - A TIME OF 172800.0 SECONDS REQUESTED
 *  DUMP=N   - RESTART FILE WRITTEN EVERY  7200.000 SECONDS
 *  THERMO   - THERMODYNAMIC QUANTITIES TO BE CALCULATED
 *******************************************************************************
oldgeo thermo nosym precise  pm3

   ATOM   CHEMICAL          X               Y               Z
  NUMBER   SYMBOL      (ANGSTROMS)     (ANGSTROMS)     (ANGSTROMS)
 
     1       C          1.07071304  *   0.94640937  *  -0.05885681  *
     2       C         -1.11764200  *  -0.49464430  *  -0.76598530  *
     3       C          2.12757651  *   0.01679646  *   0.62951708  *
     4       C         -2.17122527  *   0.28772915  *  -0.00925793  *
     5       C          0.21657768  *  -0.30772130  *  -0.18339692  *
     6       C          1.13034832  *  -1.10632488  *   0.41085447  *
     7       H         -1.37281025  *  -1.57234523  *  -0.77757333  *
     8       H         -1.08869414  *  -0.17433423  *  -1.82676584  *
     9       H          2.34802875  *   0.25027532  *   1.68059625  *
    10       H          3.08125435  *  -0.09075896  *   0.09391989  *
    11       H          1.38438892  *   1.39719875  *  -1.01073492  *
    12       H          0.64861677  *   1.73886407  *   0.57550386  *
    13       H         -2.26580988  *  -0.05977855  *   1.02754989  *
    14       H         -3.15579853  *   0.18547342  *  -0.48269811  *
    15       H         -1.92988119  *   1.35845919  *   0.02715243  *
    16       H          1.19124091  *  -2.15560101  *   0.66430739  *
 


          CARTESIAN COORDINATES 

    NO.       ATOM         X         Y         Z

     1         C        1.0707    0.9464   -0.0589
     2         C       -1.1176   -0.4946   -0.7660
     3         C        2.1276    0.0168    0.6295
     4         C       -2.1712    0.2877   -0.0093
     5         C        0.2166   -0.3077   -0.1834
     6         C        1.1303   -1.1063    0.4109
     7         H       -1.3728   -1.5723   -0.7776
     8         H       -1.0887   -0.1743   -1.8268
     9         H        2.3480    0.2503    1.6806
    10         H        3.0813   -0.0908    0.0939
    11         H        1.3844    1.3972   -1.0107
    12         H        0.6486    1.7389    0.5755
    13         H       -2.2658   -0.0598    1.0275
    14         H       -3.1558    0.1855   -0.4827
    15         H       -1.9299    1.3585    0.0272
    16         H        1.1912   -2.1556    0.6643

  H: (PM3): J. J. P. STEWART, J. COMP. CHEM. 10, 209 (1989).
  C: (PM3): J. J. P. STEWART, J. COMP. CHEM. 10, 209 (1989).

           Empirical Formula: C6 H10  =    16 atoms



      MOLECULAR POINT GROUP   :   C1  


      RHF CALCULATION, NO. OF DOUBLY OCCUPIED LEVELS =   17



          HEAT OF FORMATION =      22.248573 KCALS/MOLE


          INTERNAL COORDINATE DERIVATIVES

   NUMBER  ATOM       BOND         ANGLE      DIHEDRAL

     1       C      0.004650     0.000998     0.003598
     2       C      0.003488    -0.002130     0.000615
     3       C      0.000703     0.000711    -0.005402
     4       C      0.008417    -0.005851     0.001061
     5       C     -0.004633    -0.001223    -0.000581
     6       C     -0.012703     0.001183     0.000031
     7       H     -0.008255    -0.003475    -0.002206
     8       H      0.000294    -0.003476     0.000357
     9       H      0.011536    -0.007193     0.001024
    10       H      0.000119     0.006939    -0.004008
    11       H      0.004729     0.004121    -0.000346
    12       H     -0.011719    -0.000778    -0.000417
    13       H     -0.002433     0.005876    -0.005240
    14       H     -0.002394     0.001123    -0.000448
    15       H      0.006242     0.006458     0.004114
    16       H      0.001957    -0.003284     0.007846


          GRADIENT NORM =   0.03390


          TIME FOR SCF CALCULATION =    0.00

          TIME FOR DERIVATIVES     =    0.00

          MOLECULAR WEIGHT =   82.14



          ROTATIONAL CONSTANTS IN CM(-1)

          A =    0.27853860   B =    0.07713183   C =    0.06847740



           PRINCIPAL MOMENTS OF INERTIA IN UNITS OF 10**(-40)*GRAM-CM**2

          A =      100.4987   B =      362.9212   C =      408.7885


          ORIENTATION OF MOLECULE IN FORCE CALCULATION

    NO.       ATOM         X         Y         Z

     1          C      -1.2585   -0.4935   -0.2312
     2          C       1.4555   -0.4935   -0.2312
     3          C      -1.7964    0.9781   -0.2312
     4          C       1.6924   -1.3038    1.0266
     5          C       0.1286    0.1341   -0.2277
     6          C      -0.3390    1.4019   -0.2276
     7          H       2.2365    0.2841   -0.3409
     8          H       1.5385   -1.1409   -1.1271
     9          H      -2.3720    1.2702    0.6584
    10          H      -2.3687    1.2712   -1.1225
    11          H      -1.5027   -1.0876   -1.1229
    12          H      -1.5042   -1.0903    0.6588
    13          H       1.6831   -0.6706    1.9231
    14          H       2.6640   -1.8126    0.9921
    15          H       0.9198   -2.0722    1.1629
    16          H       0.1030    2.3886   -0.2264


    FIRST DERIVATIVES WILL BE USED IN THE CALCULATION OF SECOND DERIVATIVES

          ESTIMATED TIME TO COMPLETE CALCULATION =        0.80 SECONDS

    FOR POINT-GROUP C1   THERE ARE   1 UNIQUE SYMMETRY FUNCTIONS.

 STEP:   1 TIME =     0.01 SECS, INTEGRAL =      0.01 TIME LEFT: 172799.98
 STEP:   2 TIME =     0.01 SECS, INTEGRAL =      0.03 TIME LEFT: 172799.97
 STEP:   3 TIME =     0.01 SECS, INTEGRAL =      0.04 TIME LEFT: 172799.95
 STEP:   4 TIME =     0.01 SECS, INTEGRAL =      0.06 TIME LEFT: 172799.94
 STEP:   5 TIME =     0.01 SECS, INTEGRAL =      0.07 TIME LEFT: 172799.93
 STEP:   6 TIME =     0.01 SECS, INTEGRAL =      0.08 TIME LEFT: 172799.91
 STEP:   7 TIME =     0.01 SECS, INTEGRAL =      0.10 TIME LEFT: 172799.90
 STEP:   8 TIME =     0.01 SECS, INTEGRAL =      0.11 TIME LEFT: 172799.88
 STEP:   9 TIME =     0.01 SECS, INTEGRAL =      0.13 TIME LEFT: 172799.87
 STEP:  10 TIME =     0.01 SECS, INTEGRAL =      0.14 TIME LEFT: 172799.86
 STEP:  11 TIME =     0.01 SECS, INTEGRAL =      0.15 TIME LEFT: 172799.84
 STEP:  12 TIME =     0.01 SECS, INTEGRAL =      0.17 TIME LEFT: 172799.83
 STEP:  13 TIME =     0.01 SECS, INTEGRAL =      0.18 TIME LEFT: 172799.82
 STEP:  14 TIME =     0.01 SECS, INTEGRAL =      0.19 TIME LEFT: 172799.80
 STEP:  15 TIME =     0.01 SECS, INTEGRAL =      0.21 TIME LEFT: 172799.79
 STEP:  16 TIME =     0.02 SECS, INTEGRAL =      0.23 TIME LEFT: 172799.77
 STEP:  17 TIME =     0.01 SECS, INTEGRAL =      0.24 TIME LEFT: 172799.76
 STEP:  18 TIME =     0.01 SECS, INTEGRAL =      0.25 TIME LEFT: 172799.74
 STEP:  19 TIME =     0.01 SECS, INTEGRAL =      0.27 TIME LEFT: 172799.73
 STEP:  20 TIME =     0.01 SECS, INTEGRAL =      0.28 TIME LEFT: 172799.71
 STEP:  21 TIME =     0.01 SECS, INTEGRAL =      0.30 TIME LEFT: 172799.70
 STEP:  22 TIME =     0.01 SECS, INTEGRAL =      0.31 TIME LEFT: 172799.68
 STEP:  23 TIME =     0.01 SECS, INTEGRAL =      0.33 TIME LEFT: 172799.67
 STEP:  24 TIME =     0.01 SECS, INTEGRAL =      0.34 TIME LEFT: 172799.66
 STEP:  25 TIME =     0.01 SECS, INTEGRAL =      0.35 TIME LEFT: 172799.64
 STEP:  26 TIME =     0.01 SECS, INTEGRAL =      0.37 TIME LEFT: 172799.63
 STEP:  27 TIME =     0.01 SECS, INTEGRAL =      0.38 TIME LEFT: 172799.61
 STEP:  28 TIME =     0.01 SECS, INTEGRAL =      0.40 TIME LEFT: 172799.60
 STEP:  29 TIME =     0.01 SECS, INTEGRAL =      0.41 TIME LEFT: 172799.59
 STEP:  30 TIME =     0.01 SECS, INTEGRAL =      0.42 TIME LEFT: 172799.57
 STEP:  31 TIME =     0.01 SECS, INTEGRAL =      0.44 TIME LEFT: 172799.56
 STEP:  32 TIME =     0.01 SECS, INTEGRAL =      0.45 TIME LEFT: 172799.54
 STEP:  33 TIME =     0.01 SECS, INTEGRAL =      0.47 TIME LEFT: 172799.53
 STEP:  34 TIME =     0.02 SECS, INTEGRAL =      0.48 TIME LEFT: 172799.51
 STEP:  35 TIME =     0.01 SECS, INTEGRAL =      0.50 TIME LEFT: 172799.50
 STEP:  36 TIME =     0.01 SECS, INTEGRAL =      0.51 TIME LEFT: 172799.48
 STEP:  37 TIME =     0.01 SECS, INTEGRAL =      0.53 TIME LEFT: 172799.47
 STEP:  38 TIME =     0.01 SECS, INTEGRAL =      0.54 TIME LEFT: 172799.46
 STEP:  39 TIME =     0.01 SECS, INTEGRAL =      0.55 TIME LEFT: 172799.44
 STEP:  40 TIME =     0.01 SECS, INTEGRAL =      0.57 TIME LEFT: 172799.43
 STEP:  41 TIME =     0.01 SECS, INTEGRAL =      0.58 TIME LEFT: 172799.41
 STEP:  42 TIME =     0.01 SECS, INTEGRAL =      0.60 TIME LEFT: 172799.40
 STEP:  43 TIME =     0.02 SECS, INTEGRAL =      0.61 TIME LEFT: 172799.38
 STEP:  44 TIME =     0.01 SECS, INTEGRAL =      0.63 TIME LEFT: 172799.37
 STEP:  45 TIME =     0.01 SECS, INTEGRAL =      0.64 TIME LEFT: 172799.35
 STEP:  46 TIME =     0.01 SECS, INTEGRAL =      0.66 TIME LEFT: 172799.34
 STEP:  47 TIME =     0.01 SECS, INTEGRAL =      0.67 TIME LEFT: 172799.33
 STEP:  48 TIME =     0.01 SECS, INTEGRAL =      0.68 TIME LEFT: 172799.31

(To convert to Hartree/Bohr^2, multiply by (10^(-21) x N x a0^2)/(4.184 x 627.51) = 0.0642)


           FORCE MATRIX IN MILLIDYNES/ANGSTROM


                  C  1       C  2       C  3       C  4       C  5       C  6
 ------------------------------------------------------------------------------
     C    1  14.260364
     C    2   0.365370  14.942084
     C    3   3.109566   0.126154  14.364043
     C    4   0.027073   4.359773   0.018305  14.330139
     C    5   3.929155   5.601223   2.272633   0.742960  19.062664
     C    6   2.249240   0.561706   4.130660   0.031962  10.035942  18.278586
     H    7   0.033665   4.471410   0.004215   0.439846   0.450234   0.014001
     H    8   0.009086   4.430347   0.015580   0.446004   0.426469   0.031115
     H    9   0.427925   0.017330   4.711100   0.003339   0.040677   0.434166
     H   10   0.427793   0.017366   4.710130   0.002542   0.040604   0.434343
     H   11   4.717609   0.007208   0.427158   0.001235   0.439644   0.040600
     H   12   4.704869   0.005654   0.426679   0.006024   0.439969   0.040409
     H   13   0.002509   0.460464   0.000639   4.749182   0.015761   0.002517
     H   14   0.001260   0.450145   0.003583   4.754917   0.054545   0.005313
     H   15   0.005485   0.463520   0.001011   4.725476   0.026069   0.002123
     H   16   0.109075   0.035966   0.338051   0.004824   0.431311   5.288396


                  H  7       H  8       H  9       H 10       H 11       H 12
 ------------------------------------------------------------------------------
     H    7   5.054472
     H    8   0.556973   5.015045
     H    9   0.000763   0.001912   5.330570
     H   10   0.000905   0.002861   0.534277   5.329932
     H   11   0.001267   0.003147   0.026024   0.022437   5.334909
     H   12   0.001218   0.000681   0.022262   0.026088   0.531694   5.323649
     H   13   0.025765   0.047687   0.000213   0.000179   0.000263   0.000503
     H   14   0.027466   0.029809   0.000661   0.000363   0.000184   0.000493
     H   15   0.048231   0.022556   0.000234   0.000216   0.000360   0.007886
     H   16   0.005794   0.003362   0.005480   0.005485   0.014347   0.014418


                  H 13       H 14       H 15       H 16
 ------------------------------------------------------
     H   13   5.487688
     H   14   0.572211   5.488632
     H   15   0.578916   0.566812   5.464585
     H   16   0.000539   0.001040   0.000497   5.676540


          HEAT OF FORMATION =      22.248573 KCALS/MOLE

          ZERO POINT ENERGY      89.514 KCAL/MOL


           NORMAL COORDINATE ANALYSIS (Total motion = 1 Angstrom)


   Root No.       1         2         3         4         5         6         7         8

                 1 A       2 A       3 A       4 A       5 A       6 A       7 A       8 A   

                  54.0     168.3     185.9     290.2     361.3     531.0     691.6     805.7
  
           1    0.0128   -0.0146   -0.0223    0.0326    0.0242   -0.0012   -0.0215   -0.0084
           2   -0.0009    0.0061    0.0081   -0.0036    0.0093   -0.0153    0.0331   -0.0039
           3    0.0440    0.0071    0.0053    0.0242   -0.0195   -0.0008    0.0033   -0.0071
           4    0.0134   -0.0107   -0.0095   -0.0066   -0.0205    0.0008    0.0708    0.0117
           5    0.0312    0.0012   -0.0078   -0.0194   -0.0261    0.0166   -0.0172    0.0171
           6    0.0192    0.0116    0.0014   -0.0312    0.0149   -0.0203   -0.0217    0.0087
           7   -0.0040   -0.0088   -0.0001    0.0015   -0.0136    0.0192   -0.0445    0.0017
           8   -0.0071    0.0085    0.0172   -0.0175   -0.0082   -0.0044    0.0135   -0.0007
           9   -0.0115   -0.0485   -0.0206   -0.0238    0.0113    0.0006    0.0010   -0.0181
          10   -0.0179    0.0464    0.0332   -0.0299    0.0207   -0.0256    0.0130    0.0017
          11   -0.0419   -0.0167   -0.0029    0.0082   -0.0244    0.0243   -0.0097    0.0052
          12   -0.0223   -0.0121   -0.0049   -0.0089    0.0110   -0.0227    0.0060   -0.0015
          13    0.0058   -0.0115   -0.0126    0.0168    0.0085   -0.0035    0.0298    0.0022
          14    0.0150    0.0001   -0.0133    0.0258    0.0378   -0.0160   -0.0036   -0.0022
          15    0.0090    0.0407    0.0174    0.0104    0.0210    0.0879    0.0138    0.0128
          16   -0.0088   -0.0074    0.0058   -0.0059   -0.0205    0.0194   -0.0341    0.0007
          17    0.0097    0.0020   -0.0062    0.0169    0.0291   -0.0130   -0.0191   -0.0059
          18   -0.0380    0.0170    0.0083    0.0350   -0.0305   -0.0109    0.0033   -0.0166
          19    0.0079   -0.0161   -0.0232    0.0305    0.0183   -0.0060    0.0987    0.0381
          20    0.0469    0.0042    0.0048   -0.0653   -0.0743    0.0190   -0.0468   -0.0263
          21    0.0905   -0.0075   -0.0124   -0.0819   -0.0433   -0.0466   -0.0301   -0.0893
          22    0.0504   -0.0409   -0.0144   -0.0731   -0.1016   -0.0444    0.0736   -0.0816
          23    0.0855    0.0122   -0.0065   -0.0527   -0.0554    0.0307   -0.0357   -0.0382
          24   -0.0169    0.0002    0.0000   -0.0136    0.0270   -0.0343   -0.0081    0.0373
          25   -0.0015   -0.0601   -0.0194   -0.0613    0.0221    0.0408   -0.0611    0.1070
          26    0.0221    0.0298    0.0357   -0.0128   -0.0370    0.0004    0.0242   -0.0148
          27   -0.0194   -0.0891   -0.0395   -0.0670    0.0449    0.0133   -0.0121    0.0598
          28   -0.0132    0.0449    0.0287    0.0509   -0.0665    0.0077   -0.0382   -0.0980
          29   -0.0495   -0.0079    0.0172   -0.0497   -0.0115    0.0034    0.0182    0.0254
          30   -0.0195   -0.0889   -0.0394   -0.0670    0.0451    0.0115   -0.0037    0.0594
          31    0.0130    0.0142   -0.0200    0.0474    0.0696    0.0886   -0.0152   -0.0049
          32   -0.0397   -0.0174   -0.0002   -0.0490    0.0417    0.0470    0.0586   -0.0616
          33    0.0698    0.0149    0.0103    0.0510   -0.0549   -0.0699   -0.0157    0.0332
          34    0.0258   -0.0488   -0.0442    0.0499    0.0159   -0.1021   -0.0608   -0.0293
          35    0.0321    0.0320    0.0249    0.0278   -0.0388   -0.0732    0.0259    0.0595
          36    0.0698    0.0149    0.0103    0.0510   -0.0551   -0.0706   -0.0141    0.0323
          37   -0.0496    0.1915   -0.1522   -0.0721    0.0154   -0.0485   -0.0360   -0.0111
          38   -0.0954   -0.0162   -0.0320    0.0282   -0.0317    0.0381    0.0192   -0.0454
          39    0.0151   -0.0112    0.0137   -0.0233    0.0156   -0.0320   -0.0143    0.0323
          40   -0.0128    0.0009    0.1273   -0.0211    0.0397   -0.0360   -0.0105   -0.0136
          41   -0.0322   -0.0975    0.1725    0.0230    0.0119    0.0056   -0.0589   -0.0230
          42   -0.0236   -0.1112    0.0565    0.0352   -0.0114    0.0159    0.1090   -0.0018
          43   -0.0159   -0.0032    0.1604   -0.0230    0.0534   -0.0492   -0.0369   -0.0256
          44   -0.0561    0.0473   -0.1452   -0.0009   -0.0550    0.0435    0.0324    0.0179
          45   -0.0910    0.0667   -0.0908   -0.0186    0.0202   -0.0414   -0.0314   -0.0707
          46   -0.0201   -0.0035    0.0221   -0.0304   -0.0520    0.0414   -0.0738    0.0046
          47    0.0148    0.0003   -0.0134    0.0277    0.0433   -0.0230   -0.0009   -0.0080
          48   -0.0797    0.0231    0.0110    0.0678   -0.0850   -0.1492   -0.0471    0.1670


   Root No.       9        10        11        12        13        14        15        16

                 9 A      10 A      11 A      12 A      13 A      14 A      15 A      16 A   

                 831.8     867.7     931.5     977.0     989.1     993.7    1008.4    1027.0
  
           1    0.0094    0.0002    0.0566    0.0031   -0.0005    0.0020    0.0014   -0.0061
           2    0.0076    0.0001    0.0000   -0.0290    0.0431   -0.0049    0.0010   -0.0138
           3   -0.0013    0.0305    0.0015   -0.0145   -0.0132   -0.0031   -0.0099    0.0058
           4   -0.0078   -0.0001   -0.0081    0.0047   -0.0010   -0.0136   -0.0009    0.0042
           5   -0.0247   -0.0006   -0.0007    0.0109    0.0042   -0.0118   -0.0071    0.0167
           6   -0.0146    0.0001    0.0016    0.0060    0.0075   -0.0108   -0.0043    0.0036
           7   -0.0055   -0.0004   -0.0406    0.0046   -0.0251    0.0033    0.0060   -0.0094
           8    0.0022    0.0002    0.0526    0.0221   -0.0266   -0.0012    0.0004    0.0041
           9   -0.0142    0.0116   -0.0009    0.0033   -0.0003   -0.0005   -0.0235   -0.0034
          10   -0.0021   -0.0001   -0.0050    0.0076   -0.0035    0.0390   -0.0059    0.0099
          11   -0.0067    0.0003    0.0079   -0.0132    0.0019   -0.0100    0.0071   -0.0152
          12   -0.0052   -0.0008    0.0005   -0.0041   -0.0057    0.0082    0.0015    0.0024
          13    0.0008    0.0001   -0.0056   -0.0042    0.0058   -0.0236    0.0034   -0.0095
          14    0.0005   -0.0001   -0.0238    0.0013   -0.0056    0.0055   -0.0015    0.0074
          15    0.0178   -0.0046    0.0002    0.0135    0.0171    0.0039    0.0040   -0.0310
          16   -0.0024   -0.0001   -0.0185   -0.0147    0.0271    0.0071   -0.0046    0.0055
          17    0.0028   -0.0002   -0.0333   -0.0049   -0.0051    0.0270   -0.0021    0.0098
          18   -0.0086   -0.0322    0.0009   -0.0077   -0.0045   -0.0010    0.0390    0.0237
          19   -0.0366   -0.0001   -0.0504    0.0558    0.0102   -0.1427   -0.0247    0.0677
          20    0.0270   -0.0005    0.0355   -0.0398   -0.0070    0.1086    0.0173   -0.0472
          21    0.1157    0.0003   -0.0326    0.0126    0.0053   -0.0561   -0.0022    0.0047
          22    0.0841    0.0014    0.0144   -0.1055   -0.0560    0.0684    0.0550   -0.0855
          23    0.0754   -0.0007   -0.0340    0.0703    0.0321   -0.0279   -0.0316    0.0446
          24   -0.0746    0.0000    0.0267   -0.0456   -0.0170    0.0098    0.0181   -0.0240
          25    0.0645   -0.0090   -0.0359    0.0166   -0.0758   -0.0056    0.1551    0.0253
          26   -0.0178    0.1588    0.0585    0.0783   -0.0890   -0.0235    0.1688    0.0471
          27    0.0413   -0.0510   -0.0005   -0.0098   -0.0125    0.0003    0.0194    0.0057
          28   -0.0835    0.0084   -0.0433    0.0452   -0.0790   -0.0110   -0.1254   -0.0685
          29    0.0096   -0.1581    0.0623    0.0519   -0.1287   -0.0359   -0.1385   -0.0805
          30    0.0420   -0.0511    0.0053   -0.0137   -0.0014   -0.0023    0.0168    0.0081
          31    0.0544    0.0313    0.1473   -0.1218   -0.1273   -0.0053   -0.0815    0.1074
          32   -0.0322    0.1522   -0.0187   -0.0159    0.0628   -0.0140    0.0200   -0.0453
          33    0.0144   -0.0875   -0.0087    0.0131    0.0087    0.0044   -0.0002   -0.0061
          34   -0.0165   -0.0294    0.1197    0.1477    0.1261    0.0501    0.0746   -0.1001
          35    0.0424   -0.1517   -0.0132   -0.0502    0.0277   -0.0212   -0.0120   -0.0006
          36    0.0162   -0.0878    0.0080    0.0119    0.0138    0.0007    0.0011   -0.0125
          37   -0.0047    0.0000    0.0085   -0.0272   -0.0047   -0.0572    0.0146   -0.0164
          38    0.0954    0.0014   -0.0399    0.0698    0.0204   -0.0098   -0.0306    0.0413
          39   -0.0738   -0.0015    0.0327   -0.0601   -0.0181    0.0070    0.0270   -0.0356
          40    0.0143    0.0002   -0.0074    0.0049    0.0003   -0.0201   -0.0022    0.0066
          41    0.0230    0.0009    0.0057   -0.0205    0.0105   -0.1271    0.0155   -0.0247
          42    0.0383   -0.0007   -0.0430    0.0839   -0.0051    0.1873   -0.0473    0.0749
          43    0.0219    0.0003   -0.0050   -0.0055    0.0007   -0.0779    0.0055   -0.0001
          44   -0.0095    0.0001    0.0006    0.0086    0.0010    0.0792   -0.0072    0.0011
          45    0.0957    0.0002   -0.0329    0.0393    0.0096   -0.1147   -0.0122    0.0334
          46   -0.0089   -0.0001    0.1047   -0.0235    0.1717    0.0316   -0.0637    0.1277
          47    0.0056   -0.0005   -0.0895   -0.0007   -0.0710    0.0172    0.0245   -0.0441
          48    0.0945    0.2245   -0.0006    0.0099    0.0057    0.0022   -0.1004   -0.0614


   Root No.      17        18        19        20        21        22        23        24

                17 A      18 A      19 A      20 A      21 A      22 A      23 A      24 A   

                1078.5    1088.9    1115.3    1120.5    1178.3    1202.4    1259.5    1296.8
  
           1    0.0112   -0.0153   -0.0024   -0.0015   -0.0604    0.0067    0.0030    0.0386
           2    0.0255   -0.0344   -0.0051    0.0001    0.0293    0.0084    0.0280   -0.0039
           3   -0.0375   -0.0316   -0.0040    0.0030   -0.0004    0.0000   -0.0011   -0.0007
           4   -0.0102    0.0145    0.0073   -0.0212    0.0055   -0.0088   -0.0155   -0.0237
           5    0.0026   -0.0122    0.0085   -0.0443    0.0067   -0.0075    0.0248    0.0280
           6    0.0099   -0.0123   -0.0759    0.0101   -0.0038    0.0007   -0.0217   -0.0195
           7    0.0063   -0.0087    0.0001   -0.0033   -0.0228   -0.0045    0.0413   -0.0372
           8   -0.0089    0.0123    0.0007   -0.0005   -0.0397   -0.0517    0.0002   -0.0229
           9    0.0401    0.0281    0.0019   -0.0017    0.0000    0.0000    0.0002   -0.0001
          10    0.0033   -0.0069   -0.0045    0.0246   -0.0016    0.0028    0.0063    0.0058
          11   -0.0006    0.0079   -0.0084    0.0499   -0.0029    0.0007   -0.0036   -0.0024
          12   -0.0023   -0.0016    0.0788   -0.0060    0.0022   -0.0015    0.0021   -0.0012
          13    0.0087   -0.0100    0.0028    0.0013   -0.0056    0.0217   -0.0345   -0.0224
          14   -0.0138    0.0189    0.0040    0.0004    0.0017    0.0284   -0.0155   -0.0134
          15    0.0022    0.0266    0.0075   -0.0057    0.0010    0.0003    0.0059    0.0042
          16   -0.0013    0.0017   -0.0024    0.0023    0.0362   -0.0397   -0.0412    0.0450
          17   -0.0219    0.0304    0.0023   -0.0029    0.0014   -0.0039   -0.0084    0.0037
          18   -0.0092   -0.0154   -0.0052    0.0025   -0.0003   -0.0001   -0.0016   -0.0010
          19   -0.0506    0.0621   -0.0292    0.1009    0.0233   -0.0478    0.1157    0.0833
          20    0.0381   -0.0508    0.0482   -0.1360   -0.0111    0.0322   -0.0969   -0.0712
          21   -0.0128    0.0308   -0.0608    0.2244   -0.0125    0.0087    0.0372    0.0365
          22   -0.0778    0.1397   -0.0707   -0.0565    0.0111    0.0168    0.0747    0.0512
          23    0.0399   -0.0703    0.1862    0.0983   -0.0023   -0.0132   -0.0455   -0.0414
          24   -0.0220    0.0390   -0.2107   -0.0948    0.0027    0.0082    0.0354    0.0370
          25   -0.0304   -0.0574   -0.0040    0.0039    0.0535    0.1170    0.0625   -0.0176
          26    0.1201    0.0656    0.0032    0.0065    0.0989    0.1455   -0.0711    0.0911
          27   -0.0283   -0.0233   -0.0018    0.0008    0.0035    0.0132    0.0343   -0.0238
          28    0.0594    0.0178    0.0034   -0.0013    0.0540    0.1170    0.0628   -0.0180
          29   -0.1123   -0.0735   -0.0015    0.0130    0.0986    0.1454   -0.0715    0.0909
          30   -0.0311   -0.0188   -0.0011    0.0016   -0.0033   -0.0125   -0.0340    0.0239
          31    0.0619   -0.0170   -0.0222    0.0192    0.2298   -0.0582    0.0581   -0.0685
          32   -0.0774   -0.1320   -0.0094   -0.0006   -0.0821    0.0471    0.0465    0.0474
          33    0.0202    0.0354    0.0044   -0.0024   -0.0057   -0.0070   -0.0259   -0.0059
          34   -0.0515   -0.0011   -0.0032    0.0074    0.2311   -0.0578    0.0658   -0.0633
          35    0.1571    0.0227    0.0022   -0.0104   -0.0809    0.0472    0.0487    0.0484
          36    0.0350    0.0142    0.0008   -0.0018    0.0068    0.0071    0.0278    0.0067
          37   -0.0149    0.0220    0.0545   -0.0115    0.0044   -0.0041    0.0078    0.0066
          38    0.0158   -0.0264   -0.1708   -0.0735   -0.0030    0.0024   -0.0296   -0.0358
          39   -0.0137    0.0218    0.1933    0.0786    0.0027   -0.0031    0.0230    0.0262
          40   -0.0028    0.0018   -0.0068   -0.0186    0.0008   -0.0002   -0.0030   -0.0057
          41   -0.0105    0.0231   -0.0110   -0.0292    0.0004   -0.0046   -0.0320   -0.0365
          42    0.0229   -0.0534   -0.0234   -0.0204    0.0023    0.0055    0.0605    0.0731
          43   -0.0142    0.0158    0.0394   -0.0601    0.0080   -0.0072    0.0177    0.0201
          44    0.0149   -0.0141   -0.0595    0.0971   -0.0102    0.0086   -0.0129   -0.0135
          45   -0.0126   -0.0004    0.0483   -0.2051    0.0172   -0.0132    0.0303    0.0396
          46   -0.0933    0.1129    0.0276   -0.0089   -0.0343    0.1832    0.0219   -0.0604
          47    0.0175   -0.0168   -0.0109    0.0018    0.0324   -0.1050   -0.0393    0.0508
          48    0.0049    0.0286    0.0141   -0.0067    0.0009    0.0002    0.0043    0.0030


   Root No.      25        26        27        28        29        30        31        32

                25 A      26 A      27 A      28 A      29 A      30 A      31 A      32 A   

                1362.8    1394.0    1403.5    1408.1    1411.6    1415.2    1438.0    1886.3
  
           1   -0.0138   -0.0210    0.0002    0.0024   -0.0007    0.0038   -0.0271    0.0242
           2   -0.0011   -0.0333   -0.0004   -0.0166   -0.0075    0.0143   -0.0322    0.0116
           3   -0.0003   -0.0001   -0.0001    0.0000    0.0001   -0.0003   -0.0004    0.0002
           4   -0.0035   -0.0001   -0.0008    0.0299    0.0104   -0.0094   -0.0573    0.0645
           5    0.0107   -0.0010    0.0008   -0.0046   -0.0065    0.0210    0.0250   -0.0383
           6   -0.0239   -0.0010   -0.0027   -0.0133    0.0029   -0.0294   -0.0092    0.0030
           7    0.0062    0.0359   -0.0009   -0.0231   -0.0083    0.0133   -0.0280    0.0253
           8    0.0082   -0.0104    0.0003    0.0030    0.0020   -0.0048    0.0265   -0.0007
           9   -0.0001    0.0001   -0.0001   -0.0001    0.0001   -0.0002   -0.0001    0.0000
          10    0.0000    0.0008   -0.0133    0.0037   -0.0321    0.0058    0.0107   -0.0007
          11    0.0110   -0.0014   -0.0365   -0.0067    0.0124   -0.0253   -0.0122    0.0000
          12   -0.0203    0.0021   -0.0155    0.0104    0.0015    0.0425    0.0155    0.0004
          13    0.0298    0.0040   -0.0007   -0.0207   -0.0045    0.0019    0.0618   -0.1619
          14    0.0125    0.0061   -0.0002   -0.0081   -0.0012   -0.0010    0.0375    0.2137
          15    0.0022    0.0001    0.0003    0.0003   -0.0004    0.0030    0.0021   -0.0018
          16   -0.0018   -0.0074    0.0008    0.0087    0.0029   -0.0037    0.0226    0.0638
          17   -0.0151    0.0022   -0.0004    0.0169    0.0050   -0.0068   -0.0407   -0.1740
          18   -0.0006    0.0000    0.0000   -0.0002    0.0001   -0.0008   -0.0004    0.0003
          19   -0.0543   -0.0064    0.0025   -0.0273   -0.0182    0.0103    0.0167   -0.0135
          20    0.0710    0.0056   -0.0029    0.0552    0.0207    0.0093   -0.0441    0.0400
          21    0.1778    0.0045    0.0036    0.0957    0.0159    0.0941   -0.0308   -0.0016
          22   -0.1146   -0.0002   -0.0031   -0.1006   -0.0340   -0.0327    0.1029    0.0076
          23   -0.1225   -0.0040   -0.0052   -0.0630   -0.0041   -0.0733    0.0091   -0.0118
          24    0.0794    0.0015    0.0010    0.0284    0.0000    0.0449    0.0106   -0.0141
          25   -0.0295   -0.1449    0.0029    0.0775    0.0266   -0.0425    0.0541   -0.0130
          26   -0.0092    0.0651   -0.0016   -0.0313   -0.0126    0.0234   -0.0719   -0.0182
          27   -0.0153   -0.1281    0.0027    0.0684    0.0246   -0.0410    0.0772   -0.0269
          28   -0.0299   -0.1455    0.0028    0.0774    0.0270   -0.0435    0.0540   -0.0132
          29   -0.0089    0.0650   -0.0015   -0.0311   -0.0128    0.0237   -0.0716   -0.0183
          30    0.0154    0.1277   -0.0027   -0.0681   -0.0247    0.0412   -0.0769    0.0267
          31   -0.0016    0.0720    0.0005    0.0183    0.0080   -0.0157    0.0139   -0.0256
          32   -0.0395    0.1562    0.0029    0.0847    0.0324   -0.0541    0.0570    0.0097
          33    0.0207   -0.1374   -0.0021   -0.0657   -0.0264    0.0459   -0.0622    0.0199
          34    0.0004    0.0719    0.0021    0.0187    0.0076   -0.0124    0.0158   -0.0268
          35   -0.0392    0.1561    0.0023    0.0843    0.0326   -0.0538    0.0572    0.0093
          36   -0.0207    0.1381    0.0024    0.0660    0.0264   -0.0457    0.0627   -0.0202
          37    0.0050   -0.0031    0.1933   -0.0510    0.2745    0.0177   -0.0118    0.0011
          38   -0.0885    0.0061   -0.0949    0.0202    0.0643    0.1279    0.0397   -0.0034
          39    0.0599   -0.0040    0.0566   -0.0123   -0.0398   -0.0814   -0.0259    0.0021
          40   -0.0158    0.0019    0.1852    0.0093   -0.0225    0.0228    0.0065    0.0047
          41   -0.0410    0.0032    0.3385    0.0230   -0.0262    0.0308   -0.0114    0.0054
          42    0.0985   -0.0085    0.1530   -0.0791    0.1452   -0.0926   -0.0010   -0.0154
          43    0.0384   -0.0049   -0.2091   -0.0300    0.1157   -0.0416   -0.0210    0.0044
          44   -0.0183    0.0036    0.1949    0.0272   -0.1518    0.0066    0.0131   -0.0030
          45    0.0946   -0.0067    0.0011    0.0014   -0.1716   -0.1449   -0.0449    0.0055
          46    0.0009    0.0138   -0.0013   -0.0026   -0.0001   -0.0021   -0.0238   -0.1076
          47   -0.0171   -0.0065    0.0005    0.0241    0.0071   -0.0087   -0.0227   -0.1554
          48    0.0016    0.0000    0.0001    0.0005   -0.0005    0.0023    0.0012   -0.0013


   Root No.      33        34        35        36        37        38        39        40

                33 A      34 A      35 A      36 A      37 A      38 A      39 A      40 A   

                2949.4    3024.8    3042.5    3055.4    3080.9    3087.2    3105.2    3106.3
  
           1    0.0002    0.0002    0.0003    0.0003   -0.0003   -0.0001   -0.0130   -0.0027
           2   -0.0001    0.0000    0.0006    0.0007   -0.0009   -0.0002   -0.0308   -0.0083
           3   -0.0001    0.0000   -0.0304   -0.0304   -0.0012   -0.0002   -0.0015   -0.0004
           4   -0.0212   -0.0280    0.0000    0.0001   -0.0017   -0.0014    0.0000    0.0001
           5   -0.0466   -0.0072    0.0001    0.0001   -0.0022    0.0003    0.0000   -0.0001
           6   -0.0281    0.0282    0.0000   -0.0001   -0.0004    0.0021    0.0000    0.0000
           7    0.0000    0.0000    0.0000    0.0000    0.0000    0.0000   -0.0074    0.0309
           8    0.0000    0.0000    0.0000    0.0000    0.0000    0.0000    0.0030   -0.0158
           9    0.0000    0.0000    0.0307   -0.0301   -0.0002    0.0000   -0.0002   -0.0001
          10    0.0010    0.0038    0.0004    0.0006   -0.0321   -0.0378    0.0010    0.0003
          11    0.0024   -0.0008    0.0004    0.0005   -0.0357    0.0239    0.0006    0.0001
          12    0.0012   -0.0005    0.0001    0.0002   -0.0159    0.0228    0.0003    0.0001
          13    0.0002    0.0000    0.0000    0.0000    0.0001    0.0002    0.0000   -0.0012
          14   -0.0004    0.0000    0.0000    0.0000   -0.0002   -0.0003   -0.0009    0.0006
          15    0.0000    0.0000    0.0000   -0.0004    0.0001    0.0002    0.0000    0.0000
          16   -0.0004    0.0000    0.0000    0.0000    0.0000    0.0000   -0.0003    0.0007
          17    0.0002   -0.0001    0.0000    0.0000    0.0000    0.0000    0.0001   -0.0003
          18   -0.0001    0.0001    0.0000   -0.0004    0.0000    0.0000    0.0000    0.0000
          19    0.2897    0.3253   -0.0005   -0.0007    0.0198    0.0130   -0.0001    0.0000
          20    0.2847    0.3457   -0.0005   -0.0008    0.0226    0.0161   -0.0002    0.0000
          21   -0.0483   -0.0227    0.0001    0.0001   -0.0058   -0.0009    0.0001    0.0000
          22   -0.0368    0.0074   -0.0001   -0.0001   -0.0016   -0.0003   -0.0001    0.0000
          23    0.2756   -0.2553   -0.0001    0.0001    0.0029   -0.0163   -0.0002    0.0000
          24    0.3876   -0.3224   -0.0003    0.0000    0.0094   -0.0256   -0.0003    0.0000
          25    0.0001   -0.0002    0.1258   -0.1241   -0.0009   -0.0003    0.0434   -0.1869
          26    0.0000    0.0001   -0.0623    0.0651    0.0005    0.0002   -0.0225    0.0953
          27   -0.0001    0.0002   -0.1860    0.1812    0.0013    0.0005   -0.0745    0.3190
          28   -0.0001    0.0002   -0.1255    0.1238    0.0011   -0.0002    0.0444   -0.1846
          29    0.0001   -0.0001    0.0627   -0.0655   -0.0006    0.0001   -0.0234    0.0950
          30   -0.0001    0.0002   -0.1872    0.1823    0.0016   -0.0003    0.0764   -0.3180
          31    0.0003   -0.0002    0.0526    0.0504    0.0042    0.0008    0.0789    0.0202
          32    0.0001    0.0000    0.1239    0.1270    0.0102    0.0021    0.1928    0.0483
          33    0.0002   -0.0001    0.1792    0.1770    0.0157    0.0033    0.3174    0.0799
          34   -0.0002   -0.0002   -0.0560   -0.0545    0.0003    0.0005    0.0747    0.0192
          35   -0.0004   -0.0005   -0.1310   -0.1359   -0.0003    0.0007    0.1811    0.0454
          36    0.0005    0.0009    0.1897    0.1905   -0.0011   -0.0013   -0.2989   -0.0754
          37    0.0012    0.0013    0.0003    0.0004   -0.0210   -0.0153    0.0006    0.0002
          38   -0.0169    0.0059   -0.0011   -0.0020    0.1818   -0.1893   -0.0041   -0.0007
          39   -0.0167    0.0076   -0.0017   -0.0030    0.2610   -0.2586   -0.0058   -0.0010
          40    0.0026   -0.0318   -0.0008   -0.0013    0.0802    0.3938   -0.0058   -0.0019
          41   -0.0006    0.0149    0.0007    0.0011   -0.0676   -0.1985    0.0036    0.0011
          42   -0.0003    0.0049    0.0001    0.0002   -0.0141   -0.0134    0.0006    0.0001
          43   -0.0172   -0.0148   -0.0037   -0.0055    0.3245    0.0734   -0.0069   -0.0017
          44   -0.0139   -0.0153   -0.0039   -0.0057    0.3135    0.1023   -0.0064   -0.0016
          45   -0.0004    0.0012    0.0006    0.0010   -0.0575   -0.0014    0.0012    0.0003
          46    0.0002   -0.0003   -0.0001   -0.0001    0.0002    0.0003    0.0059    0.0004
          47    0.0013    0.0003   -0.0002   -0.0002    0.0006    0.0008    0.0132    0.0008
          48    0.0002   -0.0002    0.0003   -0.0006    0.0000    0.0000    0.0000    0.0000


   Root No.      41        42

                41 A      42 A   

                3182.3    3207.5
  
           1   -0.0001    0.0016
           2   -0.0002    0.0033
           3    0.0002    0.0004
           4   -0.0003    0.0004
           5    0.0003   -0.0003
           6   -0.0003   -0.0001
           7    0.0000    0.0017
           8    0.0000   -0.0005
           9    0.0000    0.0000
          10   -0.0051    0.0002
          11    0.0121    0.0002
          12   -0.0208    0.0001
          13    0.0001   -0.0044
          14   -0.0001    0.0070
          15    0.0000   -0.0001
          16    0.0000   -0.0284
          17    0.0000   -0.0748
          18    0.0000   -0.0004
          19    0.0015   -0.0006
          20    0.0023   -0.0012
          21   -0.0009   -0.0004
          22   -0.0001    0.0000
          23   -0.0007   -0.0010
          24   -0.0019   -0.0007
          25    0.0000   -0.0008
          26    0.0000    0.0001
          27    0.0000    0.0017
          28    0.0000   -0.0011
          29    0.0000   -0.0004
          30    0.0000   -0.0017
          31    0.0002   -0.0033
          32    0.0005   -0.0076
          33    0.0009   -0.0115
          34    0.0006   -0.0030
          35    0.0020   -0.0069
          36   -0.0029    0.0124
          37   -0.0062    0.0004
          38    0.2057    0.0009
          39    0.2596    0.0004
          40    0.2911   -0.0004
          41   -0.1444    0.0004
          42   -0.0272    0.0000
          43   -0.2232   -0.0004
          44   -0.2101   -0.0003
          45    0.0224    0.0005
          46   -0.0001    0.3539
          47   -0.0002    0.7925
          48    0.0000    0.0002


           MASS-WEIGHTED COORDINATE ANALYSIS (NORMAL COORDINATES)


   Root No.       1         2         3         4         5         6         7         8

                 1 A       2 A       3 A       4 A       5 A       6 A       7 A       8 A   

                  54.0     168.3     185.9     290.2     361.3     531.0     691.6     805.7
  
           1    0.1072   -0.1161   -0.1817    0.2840    0.2063   -0.0091   -0.1615   -0.0852
           2   -0.0077    0.0487    0.0660   -0.0313    0.0791   -0.1121    0.2488   -0.0397
           3    0.3693    0.0564    0.0431    0.2102   -0.1665   -0.0060    0.0248   -0.0724
           4    0.1125   -0.0852   -0.0773   -0.0575   -0.1750    0.0060    0.5321    0.1196
           5    0.2621    0.0092   -0.0631   -0.1690   -0.2228    0.1221   -0.1294    0.1747
           6    0.1607    0.0925    0.0113   -0.2718    0.1266   -0.1488   -0.1630    0.0886
           7   -0.0333   -0.0705   -0.0005    0.0134   -0.1160    0.1409   -0.3348    0.0171
           8   -0.0598    0.0674    0.1402   -0.1522   -0.0702   -0.0319    0.1011   -0.0076
           9   -0.0961   -0.3866   -0.1681   -0.2070    0.0966    0.0047    0.0075   -0.1846
          10   -0.1498    0.3694    0.2703   -0.2600    0.1769   -0.1879    0.0976    0.0174
          11   -0.3512   -0.1333   -0.0235    0.0715   -0.2080    0.1786   -0.0726    0.0535
          12   -0.1873   -0.0966   -0.0403   -0.0777    0.0936   -0.1664    0.0450   -0.0156
          13    0.0486   -0.0918   -0.1024    0.1462    0.0722   -0.0259    0.2238    0.0222
          14    0.1258    0.0012   -0.1087    0.2245    0.3221   -0.1174   -0.0271   -0.0228
          15    0.0755    0.3243    0.1413    0.0902    0.1792    0.6452    0.1034    0.1308
          16   -0.0740   -0.0586    0.0473   -0.0513   -0.1745    0.1423   -0.2561    0.0068
          17    0.0812    0.0157   -0.0504    0.1469    0.2477   -0.0955   -0.1437   -0.0601
          18   -0.3187    0.1357    0.0675    0.3046   -0.2602   -0.0802    0.0250   -0.1687
          19    0.0192   -0.0373   -0.0547    0.0768    0.0451   -0.0127    0.2149    0.1125
          20    0.1139    0.0097    0.0112   -0.1645   -0.1835    0.0404   -0.1019   -0.0775
          21    0.2200   -0.0173   -0.0292   -0.2063   -0.1068   -0.0990   -0.0655   -0.2638
          22    0.1225   -0.0944   -0.0340   -0.1842   -0.2508   -0.0944    0.1602   -0.2410
          23    0.2078    0.0281   -0.0152   -0.1329   -0.1367    0.0652   -0.0778   -0.1127
          24   -0.0410    0.0005    0.0000   -0.0342    0.0668   -0.0730   -0.0177    0.1101
          25   -0.0036   -0.1388   -0.0459   -0.1545    0.0546    0.0868   -0.1331    0.3160
          26    0.0536    0.0688    0.0843   -0.0324   -0.0914    0.0009    0.0527   -0.0438
          27   -0.0472   -0.2058   -0.0932   -0.1689    0.1110    0.0283   -0.0263    0.1765
          28   -0.0321    0.1036    0.0677    0.1282   -0.1642    0.0163   -0.0831   -0.2894
          29   -0.1204   -0.0183    0.0405   -0.1253   -0.0284    0.0072    0.0397    0.0750
          30   -0.0474   -0.2052   -0.0929   -0.1688    0.1115    0.0245   -0.0080    0.1755
          31    0.0316    0.0327   -0.0471    0.1194    0.1719    0.1884   -0.0332   -0.0146
          32   -0.0964   -0.0402   -0.0005   -0.1236    0.1029    0.1000    0.1276   -0.1819
          33    0.1696    0.0345    0.0243    0.1284   -0.1357   -0.1487   -0.0341    0.0980
          34    0.0627   -0.1128   -0.1043    0.1257    0.0394   -0.2171   -0.1324   -0.0866
          35    0.0780    0.0738    0.0588    0.0701   -0.0957   -0.1558    0.0564    0.1758
          36    0.1696    0.0345    0.0242    0.1284   -0.1362   -0.1501   -0.0307    0.0954
          37   -0.1205    0.4421   -0.3591   -0.1817    0.0379   -0.1031   -0.0785   -0.0328
          38   -0.2318   -0.0374   -0.0754    0.0711   -0.0782    0.0810    0.0419   -0.1341
          39    0.0367   -0.0258    0.0322   -0.0588    0.0385   -0.0681   -0.0310    0.0955
          40   -0.0312    0.0021    0.3003   -0.0533    0.0980   -0.0765   -0.0229   -0.0400
          41   -0.0782   -0.2251    0.4069    0.0579    0.0293    0.0119   -0.1283   -0.0680
          42   -0.0574   -0.2567    0.1333    0.0888   -0.0282    0.0338    0.2372   -0.0053
          43   -0.0387   -0.0075    0.3784   -0.0580    0.1318   -0.1046   -0.0804   -0.0755
          44   -0.1362    0.1092   -0.3427   -0.0023   -0.1359    0.0924    0.0705    0.0527
          45   -0.2212    0.1539   -0.2142   -0.0470    0.0499   -0.0881   -0.0684   -0.2088
          46   -0.0489   -0.0080    0.0521   -0.0766   -0.1285    0.0880   -0.1606    0.0135
          47    0.0359    0.0006   -0.0317    0.0698    0.1069   -0.0489   -0.0019   -0.0235
          48   -0.1936    0.0534    0.0259    0.1708   -0.2100   -0.3174   -0.1026    0.4932


   Root No.       9        10        11        12        13        14        15        16

                 9 A      10 A      11 A      12 A      13 A      14 A      15 A      16 A   

                 831.8     867.7     931.5     977.0     989.1     993.7    1008.4    1027.0
  
           1    0.0974    0.0017    0.4413    0.0306   -0.0040    0.0166    0.0121   -0.0608
           2    0.0785    0.0012    0.0004   -0.2852    0.3616   -0.0409    0.0085   -0.1369
           3   -0.0130    0.2387    0.0119   -0.1431   -0.1107   -0.0256   -0.0873    0.0578
           4   -0.0801   -0.0004   -0.0631    0.0463   -0.0086   -0.1138   -0.0080    0.0419
           5   -0.2552   -0.0047   -0.0057    0.1073    0.0349   -0.0987   -0.0623    0.1658
           6   -0.1506    0.0005    0.0127    0.0593    0.0632   -0.0903   -0.0379    0.0361
           7   -0.0566   -0.0028   -0.3163    0.0455   -0.2103    0.0277    0.0529   -0.0935
           8    0.0223    0.0019    0.4102    0.2177   -0.2233   -0.0100    0.0036    0.0411
           9   -0.1468    0.0906   -0.0068    0.0328   -0.0026   -0.0040   -0.2068   -0.0336
          10   -0.0219   -0.0008   -0.0389    0.0751   -0.0296    0.3265   -0.0523    0.0981
          11   -0.0695    0.0025    0.0619   -0.1296    0.0163   -0.0838    0.0623   -0.1511
          12   -0.0537   -0.0059    0.0040   -0.0404   -0.0480    0.0684    0.0133    0.0235
          13    0.0088    0.0010   -0.0436   -0.0415    0.0484   -0.1976    0.0302   -0.0943
          14    0.0053   -0.0007   -0.1856    0.0131   -0.0472    0.0459   -0.0133    0.0735
          15    0.1841   -0.0362    0.0012    0.1332    0.1436    0.0326    0.0354   -0.3081
          16   -0.0246   -0.0008   -0.1445   -0.1449    0.2278    0.0596   -0.0403    0.0551
          17    0.0286   -0.0015   -0.2597   -0.0485   -0.0429    0.2257   -0.0181    0.0977
          18   -0.0885   -0.2518    0.0069   -0.0762   -0.0377   -0.0081    0.3423    0.2350
          19   -0.1096   -0.0001   -0.1139    0.1591    0.0247   -0.3457   -0.0628    0.1947
          20    0.0809   -0.0011    0.0802   -0.1135   -0.0170    0.2631    0.0442   -0.1359
          21    0.3462    0.0007   -0.0736    0.0360    0.0129   -0.1359   -0.0057    0.0136
          22    0.2516    0.0032    0.0326   -0.3006   -0.1361    0.1657    0.1399   -0.2458
          23    0.2255   -0.0016   -0.0769    0.2004    0.0780   -0.0676   -0.0805    0.1283
          24   -0.2231    0.0000    0.0603   -0.1300   -0.0414    0.0236    0.0460   -0.0690
          25    0.1929   -0.0204   -0.0811    0.0472   -0.1843   -0.0136    0.3948    0.0726
          26   -0.0532    0.3599    0.1321    0.2231   -0.2164   -0.0568    0.4296    0.1356
          27    0.1237   -0.1156   -0.0011   -0.0278   -0.0305    0.0007    0.0494    0.0163
          28   -0.2499    0.0191   -0.0979    0.1287   -0.1922   -0.0266   -0.3191   -0.1970
          29    0.0288   -0.3584    0.1407    0.1478   -0.3131   -0.0869   -0.3526   -0.2316
          30    0.1257   -0.1157    0.0120   -0.0390   -0.0035   -0.0055    0.0428    0.0233
          31    0.1626    0.0708    0.3328   -0.3471   -0.3096   -0.0128   -0.2075    0.3090
          32   -0.0962    0.3450   -0.0422   -0.0453    0.1527   -0.0339    0.0509   -0.1303
          33    0.0429   -0.1984   -0.0196    0.0373    0.0211    0.0107   -0.0004   -0.0175
          34   -0.0492   -0.0665    0.2703    0.4208    0.3068    0.1214    0.1899   -0.2879
          35    0.1268   -0.3438   -0.0298   -0.1431    0.0674   -0.0514   -0.0307   -0.0017
          36    0.0485   -0.1990    0.0180    0.0338    0.0336    0.0016    0.0027   -0.0360
          37   -0.0140    0.0001    0.0192   -0.0777   -0.0114   -0.1387    0.0370   -0.0470
          38    0.2855    0.0032   -0.0902    0.1989    0.0497   -0.0238   -0.0779    0.1188
          39   -0.2206   -0.0035    0.0738   -0.1712   -0.0441    0.0171    0.0687   -0.1024
          40    0.0428    0.0005   -0.0166    0.0140    0.0008   -0.0488   -0.0056    0.0190
          41    0.0689    0.0021    0.0128   -0.0583    0.0255   -0.3078    0.0395   -0.0710
          42    0.1146   -0.0016   -0.0971    0.2392   -0.0124    0.4537   -0.1204    0.2155
          43    0.0654    0.0006   -0.0113   -0.0158    0.0018   -0.1886    0.0140   -0.0003
          44   -0.0283    0.0002    0.0013    0.0244    0.0023    0.1918   -0.0182    0.0033
          45    0.2864    0.0004   -0.0743    0.1121    0.0234   -0.2779   -0.0311    0.0962
          46   -0.0267   -0.0002    0.2364   -0.0670    0.4177    0.0765   -0.1622    0.3672
          47    0.0169   -0.0011   -0.2022   -0.0021   -0.1726    0.0417    0.0625   -0.1268
          48    0.2826    0.5088   -0.0014    0.0282    0.0138    0.0053   -0.2557   -0.1766


   Root No.      17        18        19        20        21        22        23        24

                17 A      18 A      19 A      20 A      21 A      22 A      23 A      24 A   

                1078.5    1088.9    1115.3    1120.5    1178.3    1202.4    1259.5    1296.8
  
           1    0.0986   -0.1312   -0.0146   -0.0108   -0.4215    0.0522    0.0255    0.3308
           2    0.2239   -0.2948   -0.0314    0.0010    0.2048    0.0647    0.2402   -0.0338
           3   -0.3293   -0.2702   -0.0247    0.0212   -0.0028   -0.0001   -0.0097   -0.0056
           4   -0.0898    0.1237    0.0448   -0.1499    0.0382   -0.0681   -0.1334   -0.2032
           5    0.0228   -0.1044    0.0519   -0.3129    0.0471   -0.0578    0.2133    0.2400
           6    0.0869   -0.1057   -0.4649    0.0712   -0.0269    0.0052   -0.1861   -0.1671
           7    0.0549   -0.0743    0.0007   -0.0235   -0.1592   -0.0345    0.3550   -0.3187
           8   -0.0779    0.1056    0.0041   -0.0034   -0.2771   -0.3996    0.0013   -0.1966
           9    0.3524    0.2404    0.0115   -0.0120    0.0003    0.0001    0.0021   -0.0009
          10    0.0293   -0.0592   -0.0275    0.1740   -0.0115    0.0219    0.0541    0.0494
          11   -0.0053    0.0676   -0.0512    0.3531   -0.0202    0.0053   -0.0313   -0.0205
          12   -0.0204   -0.0134    0.4827   -0.0424    0.0156   -0.0117    0.0177   -0.0099
          13    0.0763   -0.0860    0.0170    0.0089   -0.0394    0.1678   -0.2961   -0.1919
          14   -0.1211    0.1615    0.0243    0.0025    0.0120    0.2191   -0.1328   -0.1147
          15    0.0189    0.2279    0.0461   -0.0404    0.0073    0.0024    0.0506    0.0363
          16   -0.0113    0.0142   -0.0146    0.0164    0.2526   -0.3069   -0.3540    0.3857
          17   -0.1920    0.2601    0.0142   -0.0208    0.0097   -0.0299   -0.0718    0.0319
          18   -0.0809   -0.1321   -0.0317    0.0177   -0.0021   -0.0004   -0.0137   -0.0084
          19   -0.1288    0.1539   -0.0519    0.2066    0.0472   -0.1070    0.2878    0.2067
          20    0.0969   -0.1259    0.0855   -0.2786   -0.0224    0.0720   -0.2412   -0.1768
          21   -0.0326    0.0764   -0.1080    0.4595   -0.0252    0.0194    0.0927    0.0907
          22   -0.1980    0.3463   -0.1255   -0.1157    0.0225    0.0376    0.1859    0.1270
          23    0.1016   -0.1743    0.3304    0.2014   -0.0047   -0.0296   -0.1133   -0.1028
          24   -0.0559    0.0967   -0.3739   -0.1941    0.0055    0.0184    0.0881    0.0919
          25   -0.0774   -0.1422   -0.0071    0.0080    0.1082    0.2620    0.1555   -0.0438
          26    0.3055    0.1626    0.0057    0.0133    0.1999    0.3257   -0.1769    0.2262
          27   -0.0720   -0.0579   -0.0031    0.0016    0.0070    0.0295    0.0853   -0.0590
          28    0.1512    0.0441    0.0060   -0.0026    0.1092    0.2620    0.1562   -0.0447
          29   -0.2857   -0.1821   -0.0027    0.0267    0.1994    0.3255   -0.1779    0.2258
          30   -0.0790   -0.0465   -0.0020    0.0033   -0.0067   -0.0279   -0.0847    0.0593
          31    0.1575   -0.0423   -0.0394    0.0393    0.4647   -0.1304    0.1445   -0.1701
          32   -0.1969   -0.3273   -0.0166   -0.0012   -0.1661    0.1054    0.1156    0.1176
          33    0.0515    0.0877    0.0078   -0.0049   -0.0114   -0.0157   -0.0644   -0.0145
          34   -0.1310   -0.0027   -0.0057    0.0152    0.4673   -0.1294    0.1638   -0.1572
          35    0.3996    0.0562    0.0038   -0.0213   -0.1635    0.1057    0.1211    0.1203
          36    0.0890    0.0352    0.0015   -0.0038    0.0138    0.0159    0.0692    0.0166
          37   -0.0380    0.0545    0.0967   -0.0235    0.0090   -0.0092    0.0194    0.0163
          38    0.0401   -0.0654   -0.3031   -0.1505   -0.0061    0.0054   -0.0737   -0.0888
          39   -0.0348    0.0541    0.3430    0.1610    0.0054   -0.0069    0.0573    0.0651
          40   -0.0072    0.0046   -0.0120   -0.0381    0.0016   -0.0004   -0.0075   -0.0141
          41   -0.0268    0.0572   -0.0195   -0.0598    0.0008   -0.0102   -0.0797   -0.0906
          42    0.0584   -0.1325   -0.0415   -0.0418    0.0046    0.0123    0.1506    0.1814
          43   -0.0362    0.0391    0.0700   -0.1231    0.0161   -0.0162    0.0441    0.0498
          44    0.0380   -0.0350   -0.1057    0.1988   -0.0205    0.0193   -0.0321   -0.0336
          45   -0.0320   -0.0011    0.0857   -0.4200    0.0347   -0.0294    0.0753    0.0984
          46   -0.2374    0.2798    0.0491   -0.0183   -0.0694    0.4100    0.0545   -0.1499
          47    0.0444   -0.0416   -0.0193    0.0038    0.0655   -0.2351   -0.0978    0.1261
          48    0.0124    0.0709    0.0249   -0.0138    0.0019    0.0003    0.0106    0.0074


   Root No.      25        26        27        28        29        30        31        32

                25 A      26 A      27 A      28 A      29 A      30 A      31 A      32 A   

                1362.8    1394.0    1403.5    1408.1    1411.6    1415.2    1438.0    1886.3
  
           1   -0.1242   -0.1553    0.0014    0.0235   -0.0058    0.0346   -0.1899    0.0709
           2   -0.0097   -0.2462   -0.0023   -0.1645   -0.0588    0.1299   -0.2255    0.0338
           3   -0.0026   -0.0008   -0.0004   -0.0001    0.0004   -0.0031   -0.0026    0.0006
           4   -0.0317   -0.0004   -0.0050    0.2952    0.0813   -0.0854   -0.4008    0.1886
           5    0.0964   -0.0077    0.0048   -0.0454   -0.0506    0.1904    0.1746   -0.1120
           6   -0.2146   -0.0076   -0.0162   -0.1318    0.0226   -0.2668   -0.0643    0.0087
           7    0.0559    0.2655   -0.0056   -0.2282   -0.0643    0.1209   -0.1956    0.0742
           8    0.0738   -0.0771    0.0019    0.0293    0.0156   -0.0438    0.1853   -0.0021
           9   -0.0005    0.0004   -0.0003   -0.0013    0.0004   -0.0015   -0.0008    0.0000
          10   -0.0002    0.0056   -0.0807    0.0364   -0.2503    0.0526    0.0746   -0.0020
          11    0.0983   -0.0100   -0.2211   -0.0664    0.0970   -0.2300   -0.0851    0.0000
          12   -0.1824    0.0152   -0.0941    0.1024    0.0118    0.3864    0.1085    0.0012
          13    0.2674    0.0299   -0.0041   -0.2045   -0.0353    0.0175    0.4323   -0.4737
          14    0.1123    0.0449   -0.0011   -0.0800   -0.0093   -0.0095    0.2622    0.6251
          15    0.0202    0.0009    0.0016    0.0031   -0.0029    0.0273    0.0149   -0.0053
          16   -0.0159   -0.0550    0.0046    0.0863    0.0228   -0.0337    0.1578    0.1867
          17   -0.1353    0.0163   -0.0023    0.1667    0.0390   -0.0614   -0.2848   -0.5090
          18   -0.0054   -0.0003   -0.0003   -0.0015    0.0009   -0.0072   -0.0028    0.0010
          19   -0.1411   -0.0137    0.0043   -0.0783   -0.0410    0.0271    0.0338   -0.0114
          20    0.1844    0.0121   -0.0051    0.1581    0.0468    0.0246   -0.0894    0.0339
          21    0.4620    0.0095    0.0063    0.2739    0.0358    0.2477   -0.0624   -0.0014
          22   -0.2979   -0.0004   -0.0054   -0.2881   -0.0768   -0.0860    0.2085    0.0064
          23   -0.3184   -0.0085   -0.0092   -0.1804   -0.0094   -0.1930    0.0185   -0.0100
          24    0.2064    0.0032    0.0018    0.0813    0.0001    0.1182    0.0215   -0.0120
          25   -0.0766   -0.3107    0.0051    0.2218    0.0601   -0.1119    0.1096   -0.0110
          26   -0.0240    0.1397   -0.0029   -0.0896   -0.0285    0.0616   -0.1456   -0.0155
          27   -0.0398   -0.2747    0.0048    0.1959    0.0556   -0.1079    0.1565   -0.0228
          28   -0.0776   -0.3119    0.0049    0.2216    0.0609   -0.1145    0.1094   -0.0112
          29   -0.0231    0.1393   -0.0026   -0.0890   -0.0289    0.0624   -0.1451   -0.0155
          30    0.0400    0.2738   -0.0048   -0.1949   -0.0557    0.1084   -0.1559    0.0226
          31   -0.0042    0.1544    0.0009    0.0523    0.0181   -0.0413    0.0281   -0.0217
          32   -0.1026    0.3350    0.0050    0.2424    0.0732   -0.1423    0.1155    0.0082
          33    0.0537   -0.2946   -0.0036   -0.1881   -0.0596    0.1208   -0.1261    0.0168
          34    0.0010    0.1543    0.0036    0.0535    0.0172   -0.0326    0.0320   -0.0227
          35   -0.1020    0.3347    0.0041    0.2414    0.0737   -0.1416    0.1160    0.0079
          36   -0.0539    0.2962    0.0042    0.1891    0.0597   -0.1202    0.1270   -0.0171
          37    0.0130   -0.0067    0.3392   -0.1461    0.6196    0.0466   -0.0239    0.0009
          38   -0.2300    0.0131   -0.1665    0.0577    0.1450    0.3367    0.0804   -0.0029
          39    0.1558   -0.0086    0.0994   -0.0351   -0.0898   -0.2143   -0.0525    0.0018
          40   -0.0410    0.0041    0.3251    0.0266   -0.0507    0.0600    0.0132    0.0040
          41   -0.1066    0.0069    0.5940    0.0658   -0.0590    0.0811   -0.0230    0.0045
          42    0.2560   -0.0182    0.2686   -0.2266    0.3276   -0.2437   -0.0021   -0.0131
          43    0.0997   -0.0106   -0.3669   -0.0858    0.2611   -0.1095   -0.0426    0.0037
          44   -0.0476    0.0078    0.3420    0.0778   -0.3425    0.0174    0.0266   -0.0026
          45    0.2459   -0.0143    0.0019    0.0040   -0.3872   -0.3814   -0.0909    0.0046
          46    0.0023    0.0296   -0.0022   -0.0075   -0.0003   -0.0055   -0.0482   -0.0912
          47   -0.0445   -0.0140    0.0008    0.0691    0.0161   -0.0230   -0.0460   -0.1317
          48    0.0041    0.0001    0.0002    0.0015   -0.0010    0.0061    0.0024   -0.0011


   Root No.      33        34        35        36        37        38        39        40

                33 A      34 A      35 A      36 A      37 A      38 A      39 A      40 A   

                2949.4    3024.8    3042.5    3055.4    3080.9    3087.2    3105.2    3106.3
  
           1    0.0012    0.0010    0.0018    0.0023   -0.0019   -0.0004   -0.0814   -0.0164
           2   -0.0004    0.0000    0.0042    0.0053   -0.0050   -0.0014   -0.1930   -0.0505
           3   -0.0003   -0.0002   -0.2150   -0.2167   -0.0069   -0.0009   -0.0096   -0.0023
           4   -0.1110   -0.1499    0.0003    0.0004   -0.0099   -0.0084   -0.0001    0.0006
           5   -0.2437   -0.0384    0.0004    0.0005   -0.0128    0.0018    0.0003   -0.0003
           6   -0.1467    0.1508    0.0000   -0.0004   -0.0022    0.0123    0.0001    0.0000
           7    0.0001    0.0000   -0.0001    0.0002   -0.0001    0.0002   -0.0462    0.1880
           8    0.0002    0.0000   -0.0002    0.0003    0.0000   -0.0001    0.0187   -0.0960
           9    0.0000    0.0000    0.2176   -0.2144   -0.0014   -0.0001   -0.0010   -0.0005
          10    0.0053    0.0204    0.0027    0.0040   -0.1870   -0.2224    0.0062    0.0017
          11    0.0125   -0.0044    0.0025    0.0039   -0.2076    0.1406    0.0037    0.0006
          12    0.0065   -0.0025    0.0006    0.0011   -0.0924    0.1341    0.0021    0.0003
          13    0.0013   -0.0002    0.0001    0.0001    0.0003    0.0015   -0.0001   -0.0075
          14   -0.0022    0.0002    0.0001    0.0002   -0.0010   -0.0017   -0.0057    0.0037
          15   -0.0002   -0.0002    0.0001   -0.0027    0.0003    0.0014    0.0000   -0.0001
          16   -0.0021    0.0001    0.0000    0.0000   -0.0002   -0.0001   -0.0020    0.0044
          17    0.0012   -0.0003   -0.0001   -0.0001    0.0001   -0.0001    0.0003   -0.0021
          18   -0.0006    0.0005   -0.0001   -0.0025   -0.0001    0.0000   -0.0001    0.0000
          19    0.4384    0.5041   -0.0010   -0.0015    0.0334    0.0221   -0.0001    0.0000
          20    0.4309    0.5356   -0.0011   -0.0016    0.0382    0.0273   -0.0004    0.0000
          21   -0.0730   -0.0351    0.0001    0.0002   -0.0098   -0.0016    0.0002    0.0000
          22   -0.0557    0.0114   -0.0001   -0.0001   -0.0026   -0.0005   -0.0002    0.0000
          23    0.4171   -0.3957   -0.0003    0.0002    0.0048   -0.0278   -0.0004   -0.0001
          24    0.5864   -0.4996   -0.0006    0.0000    0.0158   -0.0436   -0.0005   -0.0001
          25    0.0002   -0.0003    0.2579   -0.2560   -0.0016   -0.0005    0.0788   -0.3290
          26    0.0000    0.0001   -0.1277    0.1343    0.0009    0.0003   -0.0409    0.1678
          27   -0.0002    0.0003   -0.3814    0.3739    0.0022    0.0009   -0.1354    0.5616
          28   -0.0001    0.0003   -0.2574    0.2554    0.0019   -0.0003    0.0806   -0.3251
          29    0.0001   -0.0001    0.1286   -0.1351   -0.0011    0.0001   -0.0426    0.1673
          30   -0.0002    0.0003   -0.3838    0.3761    0.0027   -0.0005    0.1389   -0.5599
          31    0.0005   -0.0003    0.1079    0.1039    0.0071    0.0014    0.1434    0.0356
          32    0.0002   -0.0001    0.2541    0.2619    0.0171    0.0036    0.3505    0.0851
          33    0.0002   -0.0002    0.3674    0.3651    0.0265    0.0056    0.5770    0.1407
          34   -0.0002   -0.0004   -0.1148   -0.1124    0.0006    0.0008    0.1358    0.0338
          35   -0.0006   -0.0008   -0.2686   -0.2803   -0.0005    0.0011    0.3291    0.0800
          36    0.0008    0.0013    0.3890    0.3931   -0.0018   -0.0022   -0.5434   -0.1327
          37    0.0018    0.0020    0.0005    0.0008   -0.0354   -0.0261    0.0011    0.0003
          38   -0.0255    0.0091   -0.0023   -0.0041    0.3065   -0.3223   -0.0075   -0.0013
          39   -0.0253    0.0118   -0.0035   -0.0061    0.4401   -0.4403   -0.0106   -0.0018
          40    0.0040   -0.0492   -0.0016   -0.0027    0.1352    0.6705   -0.0106   -0.0033
          41   -0.0010    0.0231    0.0014    0.0022   -0.1139   -0.3380    0.0065    0.0019
          42   -0.0005    0.0075    0.0002    0.0004   -0.0238   -0.0228    0.0010    0.0002
          43   -0.0261   -0.0229   -0.0075   -0.0113    0.5472    0.1249   -0.0125   -0.0029
          44   -0.0210   -0.0237   -0.0080   -0.0117    0.5286    0.1741   -0.0117   -0.0028
          45   -0.0007    0.0018    0.0013    0.0020   -0.0969   -0.0024    0.0021    0.0005
          46    0.0003   -0.0005   -0.0002   -0.0002    0.0004    0.0005    0.0107    0.0007
          47    0.0020    0.0005   -0.0004   -0.0004    0.0010    0.0013    0.0239    0.0013
          48    0.0004   -0.0003    0.0005   -0.0013    0.0000    0.0001    0.0000    0.0000


   Root No.      41        42

                41 A      42 A   

                3182.3    3207.5
  
           1   -0.0005    0.0062
           2   -0.0011    0.0126
           3    0.0010    0.0015
           4   -0.0016    0.0017
           5    0.0016   -0.0012
           6   -0.0020   -0.0002
           7    0.0000    0.0063
           8    0.0000   -0.0018
           9    0.0000    0.0001
          10   -0.0311    0.0007
          11    0.0742    0.0006
          12   -0.1273    0.0004
          13    0.0005   -0.0168
          14   -0.0004    0.0264
          15    0.0000   -0.0003
          16    0.0000   -0.1076
          17    0.0002   -0.2834
          18    0.0000   -0.0017
          19    0.0026   -0.0007
          20    0.0040   -0.0013
          21   -0.0017   -0.0004
          22   -0.0002    0.0000
          23   -0.0012   -0.0011
          24   -0.0034   -0.0007
          25    0.0001   -0.0008
          26    0.0000    0.0001
          27   -0.0001    0.0019
          28   -0.0001   -0.0012
          29    0.0000   -0.0004
          30   -0.0001   -0.0019
          31    0.0003   -0.0037
          32    0.0008   -0.0083
          33    0.0016   -0.0126
          34    0.0010   -0.0033
          35    0.0035   -0.0076
          36   -0.0052    0.0136
          37   -0.0110    0.0004
          38    0.3649    0.0010
          39    0.4605    0.0005
          40    0.5163   -0.0004
          41   -0.2562    0.0005
          42   -0.0482    0.0000
          43   -0.3960   -0.0004
          44   -0.3727   -0.0003
          45    0.0397    0.0006
          46   -0.0001    0.3883
          47   -0.0003    0.8693
          48    0.0000    0.0002


          DESCRIPTION OF VIBRATIONS


 VIBRATION    1    1A       ATOM PAIR        ENERGY CONTRIBUTION    RADIAL
 FREQ.        53.99        C  2 --  C  4          +15.8% (999.0%)     0.0%
 T-DIPOLE    0.0185        C  1 --  C  6           +8.7% (845.8%)     0.0%
 TRAVEL      0.0324        C  1 --  C  3           +8.3% (824.9%)     0.0%
 RED. MASS   0.9806        C  4 --  H 14           +8.1% (815.9%)     0.6%
 EFF. MASS1186.8742

 VIBRATION    2    2A       ATOM PAIR        ENERGY CONTRIBUTION    RADIAL
 FREQ.       168.28        C  4 --  H 13          +13.4% (324.7%)    65.0%
 T-DIPOLE    0.1081        C  4 --  H 15          +10.8% (291.6%)     6.1%
 TRAVEL      0.0652        C  3 --  C  5          +10.2% (283.0%)     0.0%
 RED. MASS   0.8552        C  2 --  C  4          +10.1% (281.8%)     0.0%
 EFF. MASS  94.1368

 VIBRATION    3    3A       ATOM PAIR        ENERGY CONTRIBUTION    RADIAL
 FREQ.       185.92        C  4 --  H 15          +21.2% (316.5%)    11.0%
 T-DIPOLE    0.0408        C  4 --  H 14          +20.0% (307.0%)    14.7%
 TRAVEL      0.1056        C  4 --  H 13          +18.5% (295.1%)     0.3%
 RED. MASS   0.3272        C  2 --  C  4           +6.6% (176.3%)     0.1%
 EFF. MASS  32.5490

 VIBRATION    4    4A       ATOM PAIR        ENERGY CONTRIBUTION    RADIAL
 FREQ.       290.25        C  2 --  C  5           +9.7% (166.6%)     0.1%
 T-DIPOLE    0.0444        C  1 --  C  6           +8.4% (154.5%)     0.1%
 TRAVEL      0.0790        C  1 --  C  3           +8.3% (153.7%)     0.2%
 RED. MASS   0.7148        C  2 --  C  4           +7.9% (149.9%)     0.0%
 EFF. MASS  37.2684

 VIBRATION    5    5A       ATOM PAIR        ENERGY CONTRIBUTION    RADIAL
 FREQ.       361.33        C  2 --  C  5          +11.3% (153.7%)     0.0%
 T-DIPOLE    0.1022        C  1 --  C  6           +9.8% (142.8%)     0.1%
 TRAVEL      0.0881        C  1 --  C  5           +8.6% (133.9%)     0.2%
 RED. MASS   0.8423        C  3 --  C  6           +8.1% (129.5%)     0.4%
 EFF. MASS  24.0217

 VIBRATION    6    6A       ATOM PAIR        ENERGY CONTRIBUTION    RADIAL
 FREQ.       531.04        C  2 --  C  5          +13.8% ( 96.3%)     0.7%
 T-DIPOLE    0.3892        C  3 --  C  5          +11.2% ( 86.6%)     3.1%
[...]
 T-DIPOLE    0.0179        C  2 --  C  4          +19.2% ( 57.0%)    28.5%
 TRAVEL      0.1168        C  4 --  H 15          +16.7% ( 53.1%)    28.7%
 RED. MASS   0.6595        C  2 --  H  8          +13.3% ( 47.4%)     2.1%
 EFF. MASS   4.4144        C  4 --  H 13          +12.5% ( 46.0%)     4.5%

 VIBRATION   21   21A       ATOM PAIR        ENERGY CONTRIBUTION    RADIAL
 FREQ.      1178.31        C  1 --  H 12          +21.2% ( 64.1%)     0.0%
 T-DIPOLE    0.0508        C  1 --  H 11          +21.2% ( 64.0%)     0.0%
 TRAVEL      0.1094        C  1 --  C  3          +10.6% ( 45.3%)    97.8%
 RED. MASS   0.8797        C  1 --  C  6           +8.8% ( 41.2%)     2.9%
 EFF. MASS   4.7787

 VIBRATION   22   22A       ATOM PAIR        ENERGY CONTRIBUTION    RADIAL
 FREQ.      1202.38        C  6 --  H 16          +17.1% ( 53.7%)     2.0%
 T-DIPOLE    0.0315        C  3 --  H  9          +16.5% ( 52.6%)     0.6%
 TRAVEL      0.1182        C  3 --  H 10          +16.5% ( 52.6%)     0.6%
 RED. MASS   0.6046        C  3 --  C  5           +8.7% ( 38.3%)     0.9%
 EFF. MASS   4.0113

 VIBRATION   23   23A       ATOM PAIR        ENERGY CONTRIBUTION    RADIAL
 FREQ.      1259.53        C  3 --  C  6          +12.9% ( 54.2%)    96.7%
 T-DIPOLE    0.0729        C  2 --  H  7           +9.8% ( 47.3%)     0.5%
 TRAVEL      0.0881        C  3 --  C  5           +9.7% ( 47.0%)    66.2%
 RED. MASS   0.7305        C  1 --  C  6           +7.4% ( 41.0%)    82.5%
 EFF. MASS   6.8908

 VIBRATION   24   24A       ATOM PAIR        ENERGY CONTRIBUTION    RADIAL
 FREQ.      1296.79        C  3 --  C  6          +12.7% ( 52.6%)    99.9%
 T-DIPOLE    0.2001        C  2 --  H  7           +8.6% ( 43.3%)     0.2%
 TRAVEL      0.0867        C  1 --  C  6           +7.2% ( 39.5%)    94.0%
 RED. MASS   0.8991        C  1 --  C  3           +7.0% ( 39.2%)     1.1%
 EFF. MASS   6.9236

 VIBRATION   25   25A       ATOM PAIR        ENERGY CONTRIBUTION    RADIAL
 FREQ.      1362.77        C  2 --  H  7          +18.6% ( 47.5%)     1.4%
 T-DIPOLE    0.0237        C  2 --  H  8          +16.2% ( 44.4%)     3.3%
 TRAVEL      0.1262        C  2 --  C  5           +8.5% ( 32.1%)    47.8%
 RED. MASS   0.2987        C  4 --  H 14           +8.0% ( 31.1%)     0.9%
 EFF. MASS   3.1049

 VIBRATION   26   26A       ATOM PAIR        ENERGY CONTRIBUTION    RADIAL
 FREQ.      1394.02        C  1 --  H 12          +18.4% ( 47.3%)     4.0%
 T-DIPOLE    0.0114        C  1 --  H 11          +18.3% ( 47.2%)     4.0%
 TRAVEL      0.1361        C  3 --  H 10          +16.0% ( 44.2%)     4.1%
 RED. MASS   0.3310        C  3 --  H  9          +16.0% ( 44.2%)     4.1%
 EFF. MASS   2.6115

 VIBRATION   27   27A       ATOM PAIR        ENERGY CONTRIBUTION    RADIAL
 FREQ.      1403.47        C  4 --  H 14          +53.1% ( 63.0%)     0.1%
 T-DIPOLE    0.0362        C  4 --  H 15          +25.7% ( 43.8%)     8.0%
 TRAVEL      0.1756        C  4 --  H 13          +16.0% ( 34.6%)    16.0%
 RED. MASS   0.4207        C  2 --  C  4           +5.1% ( 19.5%)     3.1%
 EFF. MASS   1.5581

 VIBRATION   28   28A       ATOM PAIR        ENERGY CONTRIBUTION    RADIAL
 FREQ.      1408.12        C  2 --  H  8          +11.3% ( 40.2%)     4.6%
 T-DIPOLE    0.0258        C  2 --  H  7          +10.1% ( 37.9%)     7.5%
 TRAVEL      0.1093        C  2 --  C  5           +9.7% ( 37.2%)    71.1%
 RED. MASS   0.2930        C  3 --  H  9           +7.5% ( 32.6%)     4.5%
 EFF. MASS   4.0111

 VIBRATION   29   29A       ATOM PAIR        ENERGY CONTRIBUTION    RADIAL
 FREQ.      1411.64        C  4 --  H 13          +38.6% ( 56.6%)     0.5%
 T-DIPOLE    0.0659        C  4 --  H 15          +31.8% ( 51.4%)     1.7%
 TRAVEL      0.1596        C  4 --  H 14          +11.5% ( 30.9%)    34.9%
 RED. MASS   0.3628        C  2 --  C  4           +6.7% ( 23.5%)    14.8%
 EFF. MASS   1.8750

 VIBRATION   30   30A       ATOM PAIR        ENERGY CONTRIBUTION    RADIAL
 FREQ.      1415.16        C  2 --  C  4          +17.9% ( 52.3%)   100.0%
 T-DIPOLE    0.0215        C  4 --  H 13          +16.8% ( 50.8%)     3.9%
 TRAVEL      0.1008        C  4 --  H 15          +16.7% ( 50.6%)     3.5%
 RED. MASS   0.7382        C  4 --  H 14          +12.4% ( 43.6%)     2.8%
 EFF. MASS   4.6871

 VIBRATION   31   31A       ATOM PAIR        ENERGY CONTRIBUTION    RADIAL
 FREQ.      1438.02        C  2 --  C  5          +14.6% ( 60.6%)    72.3%
 T-DIPOLE    0.0608        C  5 --  C  6          +11.4% ( 53.7%)    46.7%
 TRAVEL      0.0714        C  1 --  C  5          +11.0% ( 52.8%)    94.3%
 RED. MASS   1.5515        C  3 --  C  5           +8.7% ( 47.0%)    74.0%
 EFF. MASS   9.1880

 VIBRATION   32   32A       ATOM PAIR        ENERGY CONTRIBUTION    RADIAL
 FREQ.      1886.28        C  5 --  C  6          +32.1% ( 95.4%)    97.0%
 T-DIPOLE    0.0551        C  2 --  C  5          +17.5% ( 70.4%)    85.0%
 TRAVEL      0.0548        C  3 --  C  5          +15.0% ( 65.0%)    81.9%
 RED. MASS   5.6135        C  1 --  C  5          +14.8% ( 64.7%)     9.9%
 EFF. MASS  11.9166

 VIBRATION   33   33A       ATOM PAIR        ENERGY CONTRIBUTION    RADIAL
 FREQ.      2949.39        C  2 --  H  8          +55.5% ( 77.3%)    97.2%
 T-DIPOLE    0.0222        C  2 --  H  7          +41.9% ( 67.2%)    95.6%
 TRAVEL      0.1216        C  2 --  C  4           +1.2% ( 11.2%)     0.1%
 RED. MASS   0.5259        C  2 --  C  5           +1.2% ( 11.1%)     0.0%
 EFF. MASS   1.5463

 VIBRATION   34   34A       ATOM PAIR        ENERGY CONTRIBUTION    RADIAL
 FREQ.      3024.83        C  2 --  H  7          +56.5% ( 74.2%)    98.4%
 T-DIPOLE    0.0412        C  2 --  H  8          +41.6% ( 63.6%)    96.6%
 TRAVEL      0.1320        C  2 --  C  4           +0.7% (  8.0%)    26.3%
 RED. MASS   0.4889        C  2 --  C  5           +0.6% (  7.9%)    30.4%
 EFF. MASS   1.2793

 VIBRATION   35   35A       ATOM PAIR        ENERGY CONTRIBUTION    RADIAL
 FREQ.      3042.49        C  1 --  H 12          +25.1% ( 52.3%)    97.1%
 T-DIPOLE    0.0060        C  3 --  H 10          +24.5% ( 51.7%)    96.8%
 TRAVEL      0.1194        C  3 --  H  9          +24.3% ( 51.5%)    96.8%
 RED. MASS   0.2599        C  1 --  H 11          +22.6% ( 49.6%)    96.5%
 EFF. MASS   1.5539

 VIBRATION   36   36A       ATOM PAIR        ENERGY CONTRIBUTION    RADIAL
 FREQ.      3055.37        C  1 --  H 12          +26.1% ( 53.0%)    97.5%
 T-DIPOLE    0.0876        C  3 --  H 10          +24.0% ( 50.8%)    97.1%
 TRAVEL      0.1202        C  3 --  H  9          +23.9% ( 50.7%)    97.1%
 RED. MASS   0.2596        C  1 --  H 11          +22.8% ( 49.6%)    96.7%
 EFF. MASS   1.5278

 VIBRATION   37   37A       ATOM PAIR        ENERGY CONTRIBUTION    RADIAL
 FREQ.      3080.89        C  4 --  H 15          +62.9% ( 81.8%)    98.6%
 T-DIPOLE    0.0160        C  4 --  H 13          +31.6% ( 58.0%)    93.4%
 TRAVEL      0.1207        C  4 --  H 14           +4.2% ( 21.1%)    49.0%
 RED. MASS   0.5241        C  2 --  C  4           +1.0% ( 10.2%)     0.0%
 EFF. MASS   1.5013

 VIBRATION   38   38A       ATOM PAIR        ENERGY CONTRIBUTION    RADIAL
 FREQ.      3087.16        C  4 --  H 14          +60.6% ( 80.3%)    98.5%
 T-DIPOLE    0.0140        C  4 --  H 13          +32.4% ( 58.7%)    93.4%
 TRAVEL      0.1205        C  4 --  H 15           +5.6% ( 24.4%)    57.8%
 RED. MASS   0.5041        C  2 --  C  4           +1.0% ( 10.4%)     0.1%
 EFF. MASS   1.5051

 VIBRATION   39   39A       ATOM PAIR        ENERGY CONTRIBUTION    RADIAL
 FREQ.      3105.24        C  1 --  H 11          +49.0% ( 69.6%)    97.4%
 T-DIPOLE    0.1038        C  1 --  H 12          +43.2% ( 65.3%)    96.6%
 TRAVEL      0.1302        C  3 --  H 10           +2.8% ( 16.7%)    97.3%
 RED. MASS   0.4329        C  3 --  H  9           +2.7% ( 16.3%)    97.0%
 EFF. MASS   1.2814

 VIBRATION   40   40A       ATOM PAIR        ENERGY CONTRIBUTION    RADIAL
 FREQ.      3106.30        C  3 --  H  9          +46.4% ( 67.7%)    97.0%
 T-DIPOLE    0.1110        C  3 --  H 10          +45.9% ( 67.3%)    96.9%
 TRAVEL      0.1301        C  1 --  H 11           +2.9% ( 17.0%)    97.2%
 RED. MASS   0.4327        C  1 --  H 12           +2.6% ( 16.0%)    96.3%
 EFF. MASS   1.2833

 VIBRATION   41   41A       ATOM PAIR        ENERGY CONTRIBUTION    RADIAL
 FREQ.      3182.32        C  4 --  H 13          +35.4% ( 57.2%)    97.4%
 T-DIPOLE    0.0220        C  4 --  H 14          +34.2% ( 56.3%)    97.3%
 TRAVEL      0.1366        C  4 --  H 15          +30.1% ( 52.8%)    96.5%
 RED. MASS   0.3283        C  2 --  C  4           +0.3% (  5.1%)    99.6%
 EFF. MASS   1.1356

 VIBRATION   42   42A       ATOM PAIR        ENERGY CONTRIBUTION    RADIAL
 FREQ.      3207.53        C  6 --  H 16          +94.1% ( 99.9%)    99.9%
 T-DIPOLE    0.4436        C  5 --  C  6           +2.0% ( 14.7%)    64.5%
 TRAVEL      0.1145        C  1 --  C  6           +1.9% ( 14.1%)    99.3%
 RED. MASS   0.9294        C  3 --  C  6           +1.9% ( 14.0%)    38.3%
 EFF. MASS   1.6022

 SYMMETRY NUMBER FOR POINT-GROUP C1  =  1


          SYSTEM IS A GROUND STATE


    NULL



          MOLECULE IS NOT LINEAR

          THERE ARE 42 GENUINE VIBRATIONS IN THIS SYSTEM
          THIS THERMODYNAMICS CALCULATION IS LIMITED TO
          MOLECULES WHICH HAVE NO INTERNAL ROTATIONS




                    CALCULATED THERMODYNAMIC PROPERTIES
                                          *
   TEMP. (K)   PARTITION FUNCTION   H.O.F.    ENTHALPY  HEAT CAPACITY ENTROPY
                                   KCAL/MOL   CAL/MOLE    CAL/K/MOL  CAL/K/MOL


 298.00  VIB.     0.2758D+02                  2365.1230    17.7232    14.5286
         ROT.     0.1377D+06                   888.2813     2.9808    26.4957
         INT.     0.3799D+07                  3253.4043    20.7040    41.0244
         TRA.     0.7198D+27                  1480.4688     4.9680    39.1295
         TOT.                       22.249    4733.8731    25.6720    80.1539

 200.00  VIB.     0.7733D+01                  1006.6640    10.3790     9.0981
         ROT.     0.7574D+05                   596.1620     2.9808    25.3071
         INT.     0.5856D+06                  1602.8260    13.3598    34.4051
         TRA.     0.3957D+27                   993.6033     4.9680    37.1484
         TOT.                       20.111    2596.4292    18.3278    71.5535

 210.00  VIB.     0.8778D+01                  1113.5895    11.0114     9.6196
         ROT.     0.8149D+05                   625.9700     2.9808    25.4525
         INT.     0.7153D+06                  1739.5595    13.9922    35.0721
         TRA.     0.4258D+27                  1043.2834     4.9680    37.3907
         TOT.                       20.298    2782.8429    18.9602    72.4629

 220.00  VIB.     0.9970D+01                  1226.9961    11.6751    10.1471
         ROT.     0.8737D+05                   655.7781     2.9808    25.5912
         INT.     0.8712D+06                  1882.7742    14.6559    35.7382
         TRA.     0.4566D+27                  1092.9636     4.9680    37.6219
         TOT.                       20.490    2975.7378    19.6239    73.3601

 230.00  VIB.     0.1133D+02                  1347.1932    12.3693    10.6813
         ROT.     0.9340D+05                   685.5862     2.9808    25.7237
         INT.     0.1058D+07                  2032.7794    15.3501    36.4049
         TRA.     0.4880D+27                  1142.6437     4.9680    37.8427
         TOT.                       20.690    3175.4231    20.3181    74.2476

 240.00  VIB.     0.1288D+02                  1474.4775    13.0922    11.2229
         ROT.     0.9956D+05                   715.3943     2.9808    25.8505
         INT.     0.1283D+07                  2189.8719    16.0731    37.0734
         TRA.     0.5202D+27                  1192.3239     4.9680    38.0541
         TOT.                       20.897    3382.1958    21.0411    75.1275

 250.00  VIB.     0.1466D+02                  1609.1269    13.8419    11.7724
         ROT.     0.1058D+06                   745.2024     2.9808    25.9722
         INT.     0.1552D+07                  2354.3293    16.8227    37.7446
         TRA.     0.5531D+27                  1242.0041     4.9680    38.2569
         TOT.                       21.111    3596.3334    21.7907    76.0016

 260.00  VIB.     0.1669D+02                  1751.3949    14.6155    12.3303
         ROT.     0.1123D+06                   775.0105     2.9808    26.0891
         INT.     0.1874D+07                  2526.4054    17.5963    38.4194
         TRA.     0.5866D+27                  1291.6842     4.9680    38.4518
         TOT.                       21.333    3818.0897    22.5644    76.8712

 270.00  VIB.     0.1903D+02                  1901.5081    15.4104    12.8967
         ROT.     0.1188D+06                   804.8186     2.9808    26.2016
         INT.     0.2260D+07                  2706.3267    18.3912    39.0984
         TRA.     0.6208D+27                  1341.3644     4.9680    38.6393
         TOT.                       21.562    4047.6911    23.3592    77.7377

 280.00  VIB.     0.2171D+02                  2059.6636    16.2235    13.4718
         ROT.     0.1255D+06                   834.6267     2.9808    26.3100
         INT.     0.2723D+07                  2894.2903    19.2043    39.7819
         TRA.     0.6556D+27                  1391.0445     4.9680    38.8200
         TOT.                       21.800    4285.3349    24.1723    78.6018

 290.00  VIB.     0.2479D+02                  2226.0282    17.0517    14.0555
         ROT.     0.1322D+06                   864.4348     2.9808    26.4146
         INT.     0.3278D+07                  3090.4630    20.0325    40.4702
         TRA.     0.6910D+27                  1440.7247     4.9680    38.9943
         TOT.                       22.046    4531.1877    25.0005    79.4645

 300.00  VIB.     0.2833D+02                  2400.7381    17.8921    14.6478
         ROT.     0.1391D+06                   894.2429     2.9808    26.5157
         INT.     0.3942D+07                  3294.9810    20.8729    41.1634
         TRA.     0.7270D+27                  1490.4049     4.9680    39.1627
         TOT.                       22.300    4785.3859    25.8409    80.3262

 310.00  VIB.     0.3242D+02                  2583.9000    18.7416    15.2483
         ROT.     0.1461D+06                   924.0510     2.9808    26.6134
         INT.     0.4738D+07                  3507.9510    21.7224    41.8617
         TRA.     0.7637D+27                  1540.0850     4.9680    39.3256
         TOT.                       22.563    5048.0361    26.6904    81.1873

 320.00  VIB.     0.3714D+02                  2775.5917    19.5976    15.8568
         ROT.     0.1533D+06                   953.8591     2.9808    26.7081
         INT.     0.5692D+07                  3729.4508    22.5784    42.5648
         TRA.     0.8009D+27                  1589.7652     4.9680    39.4834
         TOT.                       22.834    5319.2160    27.5464    82.0482

 330.00  VIB.     0.4259D+02                  2975.8640    20.4573    16.4730
         ROT.     0.1605D+06                   983.6672     2.9808    26.7998
         INT.     0.6836D+07                  3959.5312    23.4381    43.2728
         TRA.     0.8388D+27                  1639.4454     4.9680    39.6362
         TOT.                       23.114    5598.9766    28.4061    82.9090

 340.00  VIB.     0.4890D+02                  3184.7425    21.3184    17.0965
         ROT.     0.1679D+06                  1013.4753     2.9808    26.8888
         INT.     0.8208D+07                  4198.2178    24.2992    43.9853
         TRA.     0.8772D+27                  1689.1255     4.9680    39.7845
         TOT.                       23.402    5887.3433    29.2673    83.7698

 350.00  VIB.     0.5620D+02                  3402.2296    22.1787    17.7269
         ROT.     0.1753D+06                  1043.2834     2.9808    26.9752
         INT.     0.9853D+07                  4445.5131    25.1595    44.7020
         TRA.     0.9162D+27                  1738.8057     4.9680    39.9285
         TOT.                       23.699    6184.3187    30.1275    84.6306

 360.00  VIB.     0.6466D+02                  3628.3068    23.0361    18.3637
         ROT.     0.1829D+06                  1073.0915     2.9808    27.0591
         INT.     0.1183D+08                  4701.3983    26.0169    45.4228
         TRA.     0.9557D+27                  1788.4859     4.9680    40.0685
         TOT.                       24.005    6489.8841    30.9849    85.4913

 370.00  VIB.     0.7449D+02                  3862.9363    23.8889    19.0065
         ROT.     0.1906D+06                  1102.8996     2.9808    27.1408
         INT.     0.1420D+08                  4965.8359    26.8697    46.1473
         TRA.     0.9958D+27                  1838.1660     4.9680    40.2046
         TOT.                       24.319    6804.0020    31.8377    86.3519

 380.00  VIB.     0.8590D+02                  4106.0640    24.7355    19.6548
         ROT.     0.1983D+06                  1132.7077     2.9808    27.2203
         INT.     0.1704D+08                  5238.7717    27.7163    46.8751
         TRA.     0.1036D+28                  1887.8462     4.9680    40.3371
         TOT.                       24.641    7126.6179    32.6843    87.2123

 390.00  VIB.     0.9917D+02                  4357.6208    25.5745    20.3082
         ROT.     0.2062D+06                  1162.5158     2.9808    27.2977
         INT.     0.2045D+08                  5520.1366    28.5553    47.6060
         TRA.     0.1078D+28                  1937.5263     4.9680    40.4662
         TOT.                       24.972    7457.6630    33.5233    88.0721

 400.00  VIB.     0.1146D+03                  4617.5250    26.4048    20.9662
         ROT.     0.2142D+06                  1192.3239     2.9808    27.3732
         INT.     0.2455D+08                  5809.8489    29.3856    48.3394
         TRA.     0.1119D+28                  1987.2065     4.9680    40.5919
         TOT.                       25.312    7797.0554    34.3536    88.9313

   *: NOTE: HEATS OF FORMATION ARE RELATIVE TO THE
            ELEMENTS IN THEIR STANDARD STATE AT 298K
              (=  Standard Enthalpy of Formation).

            Hvib:  Zero-point energy is not included.
                   frequencies of less than zero cm-1 are not included.
            Hrot = (3/2)RT
            Htra = (3/2)RT + pV = (5/2)RT

            Heat capacity is Cp, not Cv

           For more information, see: HTTP://OpenMOPAC.net/Manual/thermochemistry.html


           FORCE CONSTANT IN CARTESIAN COORDINATES (Millidynes/A)

    ATOM   CHEMICAL       X               Y               Z
   NUMBER   SYMBOL  FORCE CONSTANT  FORCE CONSTANT  FORCE CONSTANT

      1       C        6.498001        9.160485        8.354285
      2       C        9.302904        8.465142        8.047438
      3       C        9.704606        6.120137        8.351887
      4       C        8.388886        8.238742        8.190069
      5       C       12.389981       12.824287        2.703533
      6       C        8.022217       16.269134        2.170520
      7       H        2.752294        2.861248        0.722596
      8       H        0.657273        2.188808        3.416808
      9       H        1.890444        0.963823        3.717505
     10       H        1.876422        0.965986        3.729009
     11       H        0.835626        2.006947        3.733956
     12       H        0.841222        2.012954        3.711924
     13       H        0.669280        2.371018        3.748189
     14       H        4.407149        1.655972        0.727043
     15       H        3.056971        2.948513        0.761356
     16       H        1.459323        4.801540        0.331544



 TOTAL CPU TIME:             0.92 SECONDS

 == MOPAC DONE ==
