 *******************************************************************************
 ** Site#: 14399           For non-commercial use only        Version 13.159M **
 *******************************************************************************
 ** Cite this work as: MOPAC2012, James J. P. Stewart, Stewart Computational  **
 ** Chemistry, Version 13.159M web: HTTP://OpenMOPAC.net  Days remaining:   6 **
 *******************************************************************************
 **                                                                           **
 **                                MOPAC2012                                  **
 **                                                                           **
 *******************************************************************************

                            PM3 CALCULATION RESULTS


 *******************************************************************************
 *  CALCULATION DONE:                                Mon Jun  2 11:07:06 2014  *
 *  PM3      - The PM3 Hamiltonian to be used
 *  PRECISE  - CRITERIA TO BE INCREASED BY 100 TIMES
 *  NOSYM    - POINT-GROUP SYMMETRY SET TO C1
 *  T=       - A TIME OF 172800.0 SECONDS REQUESTED
 *  DUMP=N   - RESTART FILE WRITTEN EVERY  7200.000 SECONDS
 *******************************************************************************
pm3  precise nosym
 InChI=1S/C11H18/c1-5-9-8(4)10(6-2)11(9)7-3/h5-6,8-11H,1-2,7H2,3-4H3

   ATOM   CHEMICAL          X               Y               Z
  NUMBER   SYMBOL      (ANGSTROMS)     (ANGSTROMS)     (ANGSTROMS)
 
     1       C         -0.31610000  *   0.50990000  *   0.45450000  *
     2       C          0.53300000  *  -1.25800000  *  -0.42550000  *
     3       C          0.67410000  *   0.21290000  *  -0.67870000  *
     4       C         -0.70910000  *  -1.00750000  *   0.43660000  *
     5       C         -1.46330000  *   1.46790000  *   0.11050000  *
     6       C          0.28630000  *  -2.11600000  *  -1.66690000  *
     7       C         -0.99560000  *   2.91510000  *   0.00570000  *
     8       C          2.05740000  *   0.77390000  *  -0.47300000  *
     9       C         -0.70710000  *  -1.67690000  *   1.78500000  *
    10       C          3.05410000  *   0.50660000  *  -1.31970000  *
    11       C         -1.64180000  *  -1.40640000  *   2.69840000  *
    12       H          0.17680000  *   0.79330000  *   1.41760000  *
    13       H          1.39000000  *  -1.67370000  *   0.16050000  *
    14       H          0.27640000  *   0.52870000  *  -1.67470000  *
    15       H         -1.66460000  *  -1.20540000  *  -0.10830000  *
    16       H         -1.96040000  *   1.17650000  *  -0.84410000  *
    17       H         -2.23350000  *   1.40320000  *   0.91300000  *
    18       H         -0.53520000  *   3.25370000  *   0.96180000  *
    19       H         -0.25310000  *   3.03490000  *  -0.81570000  *
    20       H         -1.86330000  *   3.57720000  *  -0.21490000  *
    21       H          0.04980000  *  -3.15980000  *  -1.35990000  *
    22       H         -0.55830000  *  -1.73280000  *  -2.28460000  *
    23       H          1.20170000  *  -2.13940000  *  -2.30010000  *
    24       H          2.25660000  *   1.43360000  *   0.37070000  *
    25       H          0.05770000  *  -2.41420000  *   2.02580000  *
    26       H          4.04140000  *   0.93340000  *  -1.15390000  *
    27       H          2.90480000  *  -0.13570000  *  -2.18610000  *
    28       H         -2.43380000  *  -0.68550000  *   2.50260000  *
    29       H         -1.62480000  *  -1.90950000  *   3.66330000  *
 


          CARTESIAN COORDINATES 

    NO.       ATOM         X         Y         Z

     1         C       -0.3161    0.5099    0.4545
     2         C        0.5330   -1.2580   -0.4255
     3         C        0.6741    0.2129   -0.6787
     4         C       -0.7091   -1.0075    0.4366
     5         C       -1.4633    1.4679    0.1105
     6         C        0.2863   -2.1160   -1.6669
     7         C       -0.9956    2.9151    0.0057
     8         C        2.0574    0.7739   -0.4730
     9         C       -0.7071   -1.6769    1.7850
    10         C        3.0541    0.5066   -1.3197
    11         C       -1.6418   -1.4064    2.6984
    12         H        0.1768    0.7933    1.4176
    13         H        1.3900   -1.6737    0.1605
    14         H        0.2764    0.5287   -1.6747
    15         H       -1.6646   -1.2054   -0.1083
    16         H       -1.9604    1.1765   -0.8441
    17         H       -2.2335    1.4032    0.9130
    18         H       -0.5352    3.2537    0.9618
    19         H       -0.2531    3.0349   -0.8157
    20         H       -1.8633    3.5772   -0.2149
    21         H        0.0498   -3.1598   -1.3599
    22         H       -0.5583   -1.7328   -2.2846
    23         H        1.2017   -2.1394   -2.3001
    24         H        2.2566    1.4336    0.3707
    25         H        0.0577   -2.4142    2.0258
    26         H        4.0414    0.9334   -1.1539
    27         H        2.9048   -0.1357   -2.1861
    28         H       -2.4338   -0.6855    2.5026
    29         H       -1.6248   -1.9095    3.6633

  H: (PM3): J. J. P. STEWART, J. COMP. CHEM. 10, 209 (1989).
  C: (PM3): J. J. P. STEWART, J. COMP. CHEM. 10, 209 (1989).

           Empirical Formula: C11 H18  =    29 atoms



      MOLECULAR POINT GROUP   :   C1  


      RHF CALCULATION, NO. OF DOUBLY OCCUPIED LEVELS =   31

      Geometry optimization using EF

          DIAGONAL MATRIX USED AS START HESSIAN

 CYCLE:     1 TIME:   0.018 TIME LEFT:  2.00D  GRAD.:   111.630 HEAT: 21.18088
 CYCLE:     2 TIME:   0.025 TIME LEFT:  2.00D  GRAD.:   109.352 HEAT: 19.88922
 CYCLE:     3 TIME:   0.028 TIME LEFT:  2.00D  GRAD.:    57.378 HEAT: 17.78389
 CYCLE:     4 TIME:   0.027 TIME LEFT:  2.00D  GRAD.:    41.952 HEAT: 17.24271
 CYCLE:     5 TIME:   0.013 TIME LEFT:  2.00D  GRAD.:    37.137 HEAT: 17.04188
 CYCLE:     6 TIME:   0.016 TIME LEFT:  2.00D  GRAD.:    34.106 HEAT: 16.76645
 CYCLE:     7 TIME:   0.024 TIME LEFT:  2.00D  GRAD.:    17.390 HEAT: 16.52071
 CYCLE:     8 TIME:   0.028 TIME LEFT:  2.00D  GRAD.:    20.249 HEAT: 16.47780
 CYCLE:     9 TIME:   0.011 TIME LEFT:  2.00D  GRAD.:     9.899 HEAT: 16.37770
 CYCLE:    10 TIME:   0.011 TIME LEFT:  2.00D  GRAD.:    14.731 HEAT: 16.33010
 CYCLE:    11 TIME:   0.011 TIME LEFT:  2.00D  GRAD.:    12.197 HEAT: 16.26920
 CYCLE:    12 TIME:   0.012 TIME LEFT:  2.00D  GRAD.:    15.581 HEAT: 16.25197
 CYCLE:    13 TIME:   0.020 TIME LEFT:  2.00D  GRAD.:    10.312 HEAT: 16.20504
 CYCLE:    14 TIME:   0.020 TIME LEFT:  2.00D  GRAD.:     7.842 HEAT: 16.18449
 CYCLE:    15 TIME:   0.011 TIME LEFT:  2.00D  GRAD.:     7.794 HEAT: 16.17443
 CYCLE:    16 TIME:   0.011 TIME LEFT:  2.00D  GRAD.:     7.565 HEAT: 16.16210
 CYCLE:    17 TIME:   0.011 TIME LEFT:  2.00D  GRAD.:     8.622 HEAT: 16.15831
 CYCLE:    18 TIME:   0.011 TIME LEFT:  2.00D  GRAD.:     6.087 HEAT: 16.14000
 CYCLE:    19 TIME:   0.020 TIME LEFT:  2.00D  GRAD.:     6.075 HEAT: 16.13566
 CYCLE:    20 TIME:   0.011 TIME LEFT:  2.00D  GRAD.:     5.144 HEAT: 16.12656
 CYCLE:    21 TIME:   0.011 TIME LEFT:  2.00D  GRAD.:     5.455 HEAT: 16.12006
 CYCLE:    22 TIME:   0.011 TIME LEFT:  2.00D  GRAD.:     4.283 HEAT: 16.10795
 CYCLE:    23 TIME:   0.011 TIME LEFT:  2.00D  GRAD.:     5.333 HEAT: 16.10043
 CYCLE:    24 TIME:   0.011 TIME LEFT:  2.00D  GRAD.:     5.459 HEAT: 16.08639
 CYCLE:    25 TIME:   0.011 TIME LEFT:  2.00D  GRAD.:     6.784 HEAT: 16.07441
 CYCLE:    26 TIME:   0.011 TIME LEFT:  2.00D  GRAD.:     4.902 HEAT: 16.05788
 CYCLE:    27 TIME:   0.011 TIME LEFT:  2.00D  GRAD.:     7.389 HEAT: 16.05436
 CYCLE:    28 TIME:   0.011 TIME LEFT:  2.00D  GRAD.:     4.434 HEAT: 16.03174
 CYCLE:    29 TIME:   0.011 TIME LEFT:  2.00D  GRAD.:     6.401 HEAT: 16.02031
 CYCLE:    30 TIME:   0.011 TIME LEFT:  2.00D  GRAD.:     4.156 HEAT: 15.99887
 CYCLE:    31 TIME:   0.011 TIME LEFT:  2.00D  GRAD.:     5.324 HEAT: 15.97892
 CYCLE:    32 TIME:   0.011 TIME LEFT:  2.00D  GRAD.:     6.844 HEAT: 15.95813
 CYCLE:    33 TIME:   0.011 TIME LEFT:  2.00D  GRAD.:     6.043 HEAT: 15.92445
 CYCLE:    34 TIME:   0.011 TIME LEFT:  2.00D  GRAD.:     6.351 HEAT: 15.89249
 CYCLE:    35 TIME:   0.011 TIME LEFT:  2.00D  GRAD.:     6.848 HEAT: 15.87192
 CYCLE:    36 TIME:   0.011 TIME LEFT:  2.00D  GRAD.:     4.274 HEAT: 15.85218
 CYCLE:    37 TIME:   0.011 TIME LEFT:  2.00D  GRAD.:     3.188 HEAT: 15.83466
 CYCLE:    38 TIME:   0.011 TIME LEFT:  2.00D  GRAD.:     3.895 HEAT: 15.81883
 CYCLE:    39 TIME:   0.011 TIME LEFT:  2.00D  GRAD.:     3.770 HEAT: 15.80326
 CYCLE:    40 TIME:   0.011 TIME LEFT:  2.00D  GRAD.:     3.384 HEAT: 15.78615
 CYCLE:    41 TIME:   0.011 TIME LEFT:  2.00D  GRAD.:     4.620 HEAT: 15.74698
 CYCLE:    42 TIME:   0.011 TIME LEFT:  2.00D  GRAD.:     5.209 HEAT: 15.71342
 CYCLE:    43 TIME:   0.011 TIME LEFT:  2.00D  GRAD.:     4.629 HEAT: 15.69002
 CYCLE:    44 TIME:   0.011 TIME LEFT:  2.00D  GRAD.:     4.400 HEAT: 15.66670
 CYCLE:    45 TIME:   0.011 TIME LEFT:  2.00D  GRAD.:     4.831 HEAT: 15.64059
 CYCLE:    46 TIME:   0.011 TIME LEFT:  2.00D  GRAD.:     3.624 HEAT: 15.61610
 CYCLE:    47 TIME:   0.011 TIME LEFT:  2.00D  GRAD.:     3.318 HEAT: 15.59636
 CYCLE:    48 TIME:   0.011 TIME LEFT:  2.00D  GRAD.:     4.272 HEAT: 15.57454
 CYCLE:    49 TIME:   0.011 TIME LEFT:  2.00D  GRAD.:     4.374 HEAT: 15.55092
 CYCLE:    50 TIME:   0.011 TIME LEFT:  2.00D  GRAD.:     2.591 HEAT: 15.53088
 CYCLE:    51 TIME:   0.011 TIME LEFT:  2.00D  GRAD.:     2.424 HEAT: 15.52084
 CYCLE:    52 TIME:   0.011 TIME LEFT:  2.00D  GRAD.:     2.552 HEAT: 15.51293
 CYCLE:    53 TIME:   0.011 TIME LEFT:  2.00D  GRAD.:     1.892 HEAT: 15.50550
 CYCLE:    54 TIME:   0.011 TIME LEFT:  2.00D  GRAD.:     1.314 HEAT: 15.50051
 CYCLE:    55 TIME:   0.011 TIME LEFT:  2.00D  GRAD.:     1.352 HEAT: 15.49804
 CYCLE:    56 TIME:   0.011 TIME LEFT:  2.00D  GRAD.:     1.428 HEAT: 15.49473
 CYCLE:    57 TIME:   0.011 TIME LEFT:  2.00D  GRAD.:     1.349 HEAT: 15.49101
 CYCLE:    58 TIME:   0.011 TIME LEFT:  2.00D  GRAD.:     1.331 HEAT: 15.48741
 CYCLE:    59 TIME:   0.011 TIME LEFT:  2.00D  GRAD.:     1.426 HEAT: 15.48338
 CYCLE:    60 TIME:   0.011 TIME LEFT:  2.00D  GRAD.:     1.438 HEAT: 15.47847
 CYCLE:    61 TIME:   0.011 TIME LEFT:  2.00D  GRAD.:     1.290 HEAT: 15.47413
 CYCLE:    62 TIME:   0.011 TIME LEFT:  2.00D  GRAD.:     1.217 HEAT: 15.47040
 CYCLE:    63 TIME:   0.011 TIME LEFT:  2.00D  GRAD.:     1.271 HEAT: 15.46654
 CYCLE:    64 TIME:   0.011 TIME LEFT:  2.00D  GRAD.:     1.231 HEAT: 15.46277
 CYCLE:    65 TIME:   0.011 TIME LEFT:  2.00D  GRAD.:     0.931 HEAT: 15.46007
 CYCLE:    66 TIME:   0.011 TIME LEFT:  2.00D  GRAD.:     0.739 HEAT: 15.45831
 CYCLE:    67 TIME:   0.011 TIME LEFT:  2.00D  GRAD.:     0.759 HEAT: 15.45695
 CYCLE:    68 TIME:   0.011 TIME LEFT:  2.00D  GRAD.:     0.814 HEAT: 15.45540
 CYCLE:    69 TIME:   0.011 TIME LEFT:  2.00D  GRAD.:     0.792 HEAT: 15.45377
 CYCLE:    70 TIME:   0.011 TIME LEFT:  2.00D  GRAD.:     0.743 HEAT: 15.45222
 CYCLE:    71 TIME:   0.011 TIME LEFT:  2.00D  GRAD.:     0.752 HEAT: 15.45091
 CYCLE:    72 TIME:   0.011 TIME LEFT:  2.00D  GRAD.:     0.724 HEAT: 15.44974
 CYCLE:    73 TIME:   0.011 TIME LEFT:  2.00D  GRAD.:     0.653 HEAT: 15.44867
 CYCLE:    74 TIME:   0.011 TIME LEFT:  2.00D  GRAD.:     0.575 HEAT: 15.44781
 CYCLE:    75 TIME:   0.011 TIME LEFT:  2.00D  GRAD.:     0.561 HEAT: 15.44697
 CYCLE:    76 TIME:   0.011 TIME LEFT:  2.00D  GRAD.:     0.617 HEAT: 15.44620
 CYCLE:    77 TIME:   0.011 TIME LEFT:  2.00D  GRAD.:     0.596 HEAT: 15.44532
 CYCLE:    78 TIME:   0.011 TIME LEFT:  2.00D  GRAD.:     0.564 HEAT: 15.44446
 CYCLE:    79 TIME:   0.011 TIME LEFT:  2.00D  GRAD.:     0.573 HEAT: 15.44368
 CYCLE:    80 TIME:   0.011 TIME LEFT:  2.00D  GRAD.:     0.582 HEAT: 15.44286
 CYCLE:    81 TIME:   0.011 TIME LEFT:  2.00D  GRAD.:     0.597 HEAT: 15.44212
 CYCLE:    82 TIME:   0.011 TIME LEFT:  2.00D  GRAD.:     0.608 HEAT: 15.44113
 CYCLE:    83 TIME:   0.012 TIME LEFT:  2.00D  GRAD.:     0.499 HEAT: 15.44065
 CYCLE:    84 TIME:   0.011 TIME LEFT:  2.00D  GRAD.:     0.498 HEAT: 15.43982
 CYCLE:    85 TIME:   0.011 TIME LEFT:  2.00D  GRAD.:     0.368 HEAT: 15.43954
 CYCLE:    86 TIME:   0.012 TIME LEFT:  2.00D  GRAD.:     0.487 HEAT: 15.43887
 CYCLE:    87 TIME:   0.011 TIME LEFT:  2.00D  GRAD.:     0.343 HEAT: 15.43865
 CYCLE:    88 TIME:   0.011 TIME LEFT:  2.00D  GRAD.:     0.288 HEAT: 15.43824
 CYCLE:    89 TIME:   0.011 TIME LEFT:  2.00D  GRAD.:     0.248 HEAT: 15.43808
 CYCLE:    90 TIME:   0.011 TIME LEFT:  2.00D  GRAD.:     0.266 HEAT: 15.43785
 CYCLE:    91 TIME:   0.011 TIME LEFT:  2.00D  GRAD.:     0.197 HEAT: 15.43776
 CYCLE:    92 TIME:   0.011 TIME LEFT:  2.00D  GRAD.:     0.182 HEAT: 15.43761
 CYCLE:    93 TIME:   0.011 TIME LEFT:  2.00D  GRAD.:     0.196 HEAT: 15.43747
 CYCLE:    94 TIME:   0.011 TIME LEFT:  2.00D  GRAD.:     0.246 HEAT: 15.43729
 CYCLE:    95 TIME:   0.011 TIME LEFT:  2.00D  GRAD.:     0.230 HEAT: 15.43718
 CYCLE:    96 TIME:   0.011 TIME LEFT:  2.00D  GRAD.:     0.234 HEAT: 15.43697
 CYCLE:    97 TIME:   0.011 TIME LEFT:  2.00D  GRAD.:     0.196 HEAT: 15.43687
 CYCLE:    98 TIME:   0.011 TIME LEFT:  2.00D  GRAD.:     0.321 HEAT: 15.43683
 CYCLE:    99 TIME:   0.012 TIME LEFT:  2.00D  GRAD.:     0.145 HEAT: 15.43666
 CYCLE:   100 TIME:   0.011 TIME LEFT:  2.00D  GRAD.:     0.121 HEAT: 15.43661
 CYCLE:   101 TIME:   0.012 TIME LEFT:  2.00D  GRAD.:     0.147 HEAT: 15.43653
 CYCLE:   102 TIME:   0.011 TIME LEFT:  2.00D  GRAD.:     0.124 HEAT: 15.43649
 CYCLE:   103 TIME:   0.011 TIME LEFT:  2.00D  GRAD.:     0.147 HEAT: 15.43640
 CYCLE:   104 TIME:   0.011 TIME LEFT:  2.00D  GRAD.:     0.143 HEAT: 15.43634
 CYCLE:   105 TIME:   0.011 TIME LEFT:  2.00D  GRAD.:     0.171 HEAT: 15.43620
 CYCLE:   106 TIME:   0.011 TIME LEFT:  2.00D  GRAD.:     0.145 HEAT: 15.43615
 CYCLE:   107 TIME:   0.012 TIME LEFT:  2.00D  GRAD.:     0.328 HEAT: 15.43609
 CYCLE:   108 TIME:   0.011 TIME LEFT:  2.00D  GRAD.:     0.174 HEAT: 15.43594
 CYCLE:   109 TIME:   0.011 TIME LEFT:  2.00D  GRAD.:     0.147 HEAT: 15.43585
 CYCLE:   110 TIME:   0.012 TIME LEFT:  2.00D  GRAD.:     0.282 HEAT: 15.43556
 CYCLE:   111 TIME:   0.011 TIME LEFT:  2.00D  GRAD.:     0.199 HEAT: 15.43535
 CYCLE:   112 TIME:   0.012 TIME LEFT:  2.00D  GRAD.:     0.174 HEAT: 15.43509
 CYCLE:   113 TIME:   0.012 TIME LEFT:  2.00D  GRAD.:     0.188 HEAT: 15.43499
 CYCLE:   114 TIME:   0.011 TIME LEFT:  2.00D  GRAD.:     0.156 HEAT: 15.43487
 CYCLE:   115 TIME:   0.013 TIME LEFT:  2.00D  GRAD.:     0.144 HEAT: 15.43481
 CYCLE:   116 TIME:   0.011 TIME LEFT:  2.00D  GRAD.:     0.150 HEAT: 15.43475
 CYCLE:   117 TIME:   0.011 TIME LEFT:  2.00D  GRAD.:     0.135 HEAT: 15.43470
 CYCLE:   118 TIME:   0.011 TIME LEFT:  2.00D  GRAD.:     0.171 HEAT: 15.43460
 CYCLE:   119 TIME:   0.011 TIME LEFT:  2.00D  GRAD.:     0.206 HEAT: 15.43450
 CYCLE:   120 TIME:   0.011 TIME LEFT:  2.00D  GRAD.:     0.208 HEAT: 15.43431
 CYCLE:   121 TIME:   0.012 TIME LEFT:  2.00D  GRAD.:     0.320 HEAT: 15.43402
 CYCLE:   122 TIME:   0.011 TIME LEFT:  2.00D  GRAD.:     0.288 HEAT: 15.43387
 CYCLE:   123 TIME:   0.011 TIME LEFT:  2.00D  GRAD.:     0.375 HEAT: 15.43363
 CYCLE:   124 TIME:   0.012 TIME LEFT:  2.00D  GRAD.:     0.280 HEAT: 15.43305
 CYCLE:   125 TIME:   0.012 TIME LEFT:  2.00D  GRAD.:     0.467 HEAT: 15.43216
 CYCLE:   126 TIME:   0.012 TIME LEFT:  2.00D  GRAD.:     0.625 HEAT: 15.43144
 CYCLE:   127 TIME:   0.012 TIME LEFT:  2.00D  GRAD.:     0.632 HEAT: 15.43005
 CYCLE:   128 TIME:   0.013 TIME LEFT:  2.00D  GRAD.:     0.830 HEAT: 15.42777
 CYCLE:   129 TIME:   0.012 TIME LEFT:  2.00D  GRAD.:     1.408 HEAT: 15.42742
 CYCLE:   130 TIME:   0.012 TIME LEFT:  2.00D  GRAD.:     0.778 HEAT: 15.42524
 CYCLE:   131 TIME:   0.012 TIME LEFT:  2.00D  GRAD.:     1.767 HEAT: 15.42431
 CYCLE:   132 TIME:   0.012 TIME LEFT:  2.00D  GRAD.:     0.862 HEAT: 15.42267
 CYCLE:   133 TIME:   0.012 TIME LEFT:  2.00D  GRAD.:     0.789 HEAT: 15.42117
 CYCLE:   134 TIME:   0.012 TIME LEFT:  2.00D  GRAD.:     1.050 HEAT: 15.41792
 CYCLE:   135 TIME:   0.013 TIME LEFT:  2.00D  GRAD.:     2.890 HEAT: 15.41306
 CYCLE:   136 TIME:   0.012 TIME LEFT:  2.00D  GRAD.:     2.546 HEAT: 15.40444
 CYCLE:   137 TIME:   0.012 TIME LEFT:  2.00D  GRAD.:     5.582 HEAT: 15.39190
 CYCLE:   138 TIME:   0.012 TIME LEFT:  2.00D  GRAD.:     6.058 HEAT: 15.34760
 CYCLE:   139 TIME:   0.012 TIME LEFT:  2.00D  GRAD.:     9.138 HEAT: 15.31108
 CYCLE:   140 TIME:   0.030 TIME LEFT:  2.00D  GRAD.:     5.901 HEAT: 15.27959
 CYCLE:   141 TIME:   0.011 TIME LEFT:  2.00D  GRAD.:     9.605 HEAT: 15.26301
 CYCLE:   142 TIME:   0.011 TIME LEFT:  2.00D  GRAD.:     3.997 HEAT: 15.23477
 CYCLE:   143 TIME:   0.012 TIME LEFT:  2.00D  GRAD.:     3.704 HEAT: 15.21445
 CYCLE:   144 TIME:   0.012 TIME LEFT:  2.00D  GRAD.:     3.809 HEAT: 15.19135
 CYCLE:   145 TIME:   0.012 TIME LEFT:  2.00D  GRAD.:     2.699 HEAT: 15.17643
 CYCLE:   146 TIME:   0.012 TIME LEFT:  2.00D  GRAD.:     1.736 HEAT: 15.17142
 CYCLE:   147 TIME:   0.012 TIME LEFT:  2.00D  GRAD.:     6.613 HEAT: 15.17640
 CYCLE:   148 TIME:   0.011 TIME LEFT:  2.00D  GRAD.:     1.879 HEAT: 15.16646
 CYCLE:   149 TIME:   0.011 TIME LEFT:  2.00D  GRAD.:     1.256 HEAT: 15.16458
 CYCLE:   150 TIME:   0.012 TIME LEFT:  2.00D  GRAD.:     1.233 HEAT: 15.16249
 CYCLE:   151 TIME:   0.012 TIME LEFT:  2.00D  GRAD.:     1.706 HEAT: 15.15906
 CYCLE:   152 TIME:   0.011 TIME LEFT:  2.00D  GRAD.:     1.205 HEAT: 15.15743
 CYCLE:   153 TIME:   0.012 TIME LEFT:  2.00D  GRAD.:     1.056 HEAT: 15.15472
 CYCLE:   154 TIME:   0.012 TIME LEFT:  2.00D  GRAD.:     0.933 HEAT: 15.15267
 CYCLE:   155 TIME:   0.012 TIME LEFT:  2.00D  GRAD.:     1.369 HEAT: 15.14760
 CYCLE:   156 TIME:   0.012 TIME LEFT:  2.00D  GRAD.:     1.606 HEAT: 15.14352
 CYCLE:   157 TIME:   0.012 TIME LEFT:  2.00D  GRAD.:     1.433 HEAT: 15.13922
 CYCLE:   158 TIME:   0.012 TIME LEFT:  2.00D  GRAD.:     1.617 HEAT: 15.13575
 CYCLE:   159 TIME:   0.013 TIME LEFT:  2.00D  GRAD.:     0.790 HEAT: 15.13344
 CYCLE:   160 TIME:   0.012 TIME LEFT:  2.00D  GRAD.:     0.576 HEAT: 15.13225
 CYCLE:   161 TIME:   0.011 TIME LEFT:  2.00D  GRAD.:     0.891 HEAT: 15.13184
 CYCLE:   162 TIME:   0.012 TIME LEFT:  2.00D  GRAD.:     0.353 HEAT: 15.13143
 CYCLE:   163 TIME:   0.012 TIME LEFT:  2.00D  GRAD.:     0.209 HEAT: 15.13130
 CYCLE:   164 TIME:   0.011 TIME LEFT:  2.00D  GRAD.:     0.227 HEAT: 15.13122
 CYCLE:   165 TIME:   0.011 TIME LEFT:  2.00D  GRAD.:     0.327 HEAT: 15.13106
 CYCLE:   166 TIME:   0.011 TIME LEFT:  2.00D  GRAD.:     0.410 HEAT: 15.13081
 CYCLE:   167 TIME:   0.012 TIME LEFT:  2.00D  GRAD.:     0.547 HEAT: 15.13021
 CYCLE:   168 TIME:   0.012 TIME LEFT:  2.00D  GRAD.:     0.714 HEAT: 15.12905
 CYCLE:   169 TIME:   0.012 TIME LEFT:  2.00D  GRAD.:     0.824 HEAT: 15.12728
 CYCLE:   170 TIME:   0.012 TIME LEFT:  2.00D  GRAD.:     1.255 HEAT: 15.12604
 CYCLE:   171 TIME:   0.012 TIME LEFT:  2.00D  GRAD.:     1.269 HEAT: 15.12417
 CYCLE:   172 TIME:   0.011 TIME LEFT:  2.00D  GRAD.:     1.098 HEAT: 15.12284
 CYCLE:   173 TIME:   0.012 TIME LEFT:  2.00D  GRAD.:     1.054 HEAT: 15.12094
 CYCLE:   174 TIME:   0.011 TIME LEFT:  2.00D  GRAD.:     0.550 HEAT: 15.12026
 CYCLE:   175 TIME:   0.012 TIME LEFT:  2.00D  GRAD.:     0.622 HEAT: 15.11900
 CYCLE:   176 TIME:   0.012 TIME LEFT:  2.00D  GRAD.:     0.567 HEAT: 15.11805
 CYCLE:   177 TIME:   0.012 TIME LEFT:  2.00D  GRAD.:     0.418 HEAT: 15.11711
 CYCLE:   178 TIME:   0.012 TIME LEFT:  2.00D  GRAD.:     0.350 HEAT: 15.11679
 CYCLE:   179 TIME:   0.012 TIME LEFT:  2.00D  GRAD.:     0.213 HEAT: 15.11655
 CYCLE:   180 TIME:   0.011 TIME LEFT:  2.00D  GRAD.:     0.123 HEAT: 15.11651
 CYCLE:   181 TIME:   0.012 TIME LEFT:  2.00D  GRAD.:     0.089 HEAT: 15.11649
 CYCLE:   182 TIME:   0.011 TIME LEFT:  2.00D  GRAD.:     0.051 HEAT: 15.11648
 CYCLE:   183 TIME:   0.011 TIME LEFT:  2.00D  GRAD.:     0.038 HEAT: 15.11648

     RMS GRADIENT =  0.03788  IS LESS THAN CUTOFF =  0.05000



 -------------------------------------------------------------------------------
pm3  precise nosym
 InChI=1S/C11H18/c1-5-9-8(4)10(6-2)11(9)7-3/h5-6,8-11H,1-2,7H2,3-4H3



     GEOMETRY OPTIMISED USING EIGENVECTOR FOLLOWING (EF).     
     SCF FIELD WAS ACHIEVED                                   


                              PM3 CALCULATION
                                                       MOPAC2012 (Version: 13.159M)
                                                       Mon Jun  2 11:07:09 2014
                                                       No. of days left =   6




          FINAL HEAT OF FORMATION =         15.11648 KCAL/MOL =      63.24735 KJ/MOL


          TOTAL ENERGY            =      -1580.37728 EV
          ELECTRONIC ENERGY       =      -9777.81826 EV  POINT GROUP:     C1  
          CORE-CORE REPULSION     =       8197.44098 EV
          COSMO AREA              =        215.13 SQUARE ANGSTROMS
          COSMO VOLUME            =        234.91 CUBIC ANGSTROMS

          GRADIENT NORM           =          0.03788
          IONIZATION POTENTIAL    =          9.901322 EV
          HOMO LUMO ENERGIES (EV) =         -9.901  1.176
          NO. OF FILLED LEVELS    =         31
          MOLECULAR WEIGHT        =        150.263

          MOLECULAR DIMENSIONS (Angstroms)

            Atom       Atom       Distance
            H    26    H    20     6.82612
            H    19    H    29     6.47842
            H    21    H    18     5.59668


          SCF CALCULATIONS        =        194
          COMPUTATION TIME        =          2.234 SECONDS




   ATOM   CHEMICAL          X               Y               Z
  NUMBER   SYMBOL      (ANGSTROMS)     (ANGSTROMS)     (ANGSTROMS)
 
     1       C         -0.40837606  *   0.51393033  *   0.38218335  *
     2       C          0.45516723  *  -1.25210199  *  -0.59757346  *
     3       C          0.68327375  *   0.28167679  *  -0.69995830  *
     4       C         -0.70843101  *  -1.01106133  *   0.40353057  *
     5       C         -1.57797525  *   1.37842409  *  -0.03963979  *
     6       C          0.05992767  *  -1.92289965  *  -1.88604212  *
     7       C         -1.20631020  *   2.84362110  *  -0.08157855  *
     8       C          2.03335812  *   0.78579016  *  -0.34981014  *
     9       C         -0.57112744  *  -1.69592790  *   1.71192990  *
    10       C          3.16092269  *   0.19901755  *  -0.73396551  *
    11       C         -1.07024023  *  -1.21345758  *   2.84409550  *
    12       H          0.00944010  *   0.88356252  *   1.34505225  *
    13       H          1.31728545  *  -1.78441893  *  -0.13841095  *
    14       H          0.40229636  *   0.69797029  *  -1.69377353  *
    15       H         -1.70444170  *  -1.26428175  *  -0.02435242  *
    16       H         -1.95701041  *   1.05369505  *  -1.02990733  *
    17       H         -2.41456298  *   1.21642644  *   0.66936935  *
    18       H         -0.88842193  *   3.21014668  *   0.90363114  *
    19       H         -0.37806975  *   3.02691603  *  -0.77972836  *
    20       H         -2.05399054  *   3.46095100  *  -0.40455006  *
    21       H         -0.24058209  *  -2.96413433  *  -1.71255786  *
    22       H         -0.78289095  *  -1.41407481  *  -2.37410618  *
    23       H          0.89702710  *  -1.92923736  *  -2.59635489  *
    24       H          2.04818624  *   1.71013860  *   0.24166190  *
    25       H         -0.03901759  *  -2.65509402  *   1.69096712  *
    26       H          4.14067262  *   0.59467898  *  -0.48547709  *
    27       H          3.18418370  *  -0.71471944  *  -1.32247525  *
    28       H         -1.60250828  *  -0.26718795  *   2.90046200  *
    29       H         -0.97965614  *  -1.73282184  *   3.79285905  *

           Empirical Formula: C11 H18  =    29 atoms



      MOLECULAR POINT GROUP   :   C1  


                  EIGENVALUES  
 -42.39602 -34.39711 -33.94487 -31.62221 -28.36104 -24.73904 -23.88230 -20.92873
 -20.32886 -18.85627 -18.75080 -17.16647 -16.14835 -15.86139 -15.65484 -15.20058
 -14.80855 -14.45410 -13.85602 -13.77941 -13.42076 -12.88611 -12.71317 -12.36036
 -12.12339 -11.85800 -11.65251 -11.53589 -11.09024 -10.24579  -9.90132   1.17569
   1.18796   3.19041   3.19373   3.24757   3.58679   3.64893   3.67900   3.72030
   3.87441   3.93443   3.94406   4.04822   4.07118   4.17588   4.25665   4.28915
   4.34262   4.44583   4.49053   4.57146   4.74641   4.89262   4.93967   4.95979
   5.16029   5.54490   5.62180   5.78357   5.86303   5.96230


              NET ATOMIC CHARGES AND DIPOLE CONTRIBUTIONS

  ATOM NO.   TYPE          CHARGE      No. of ELECS.   s-Pop       p-Pop       
    1          C          -0.089186        4.0892     1.19626     2.89292
    2          C          -0.086205        4.0862     1.19233     2.89388
    3          C          -0.065567        4.0656     1.18284     2.88272
    4          C          -0.066160        4.0662     1.18298     2.88318
    5          C          -0.091001        4.0910     1.15787     2.93314
    6          C          -0.103958        4.1040     1.13788     2.96608
    7          C          -0.111136        4.1111     1.13822     2.97291
    8          C          -0.123213        4.1232     1.19305     2.93016
    9          C          -0.123025        4.1230     1.19292     2.93010
   10          C          -0.172411        4.1724     1.18135     2.99106
   11          C          -0.172220        4.1722     1.18160     2.99062
   12          H           0.084271        0.9157     0.91573
   13          H           0.081662        0.9183     0.91834
   14          H           0.085819        0.9142     0.91418
   15          H           0.084466        0.9155     0.91553
   16          H           0.051470        0.9485     0.94853
   17          H           0.050988        0.9490     0.94901
   18          H           0.038207        0.9618     0.96179
   19          H           0.040653        0.9593     0.95935
   20          H           0.037866        0.9621     0.96213
   21          H           0.040786        0.9592     0.95921
   22          H           0.040781        0.9592     0.95922
   23          H           0.041127        0.9589     0.95887
   24          H           0.099001        0.9010     0.90100
   25          H           0.098888        0.9011     0.90111
   26          H           0.080314        0.9197     0.91969
   27          H           0.083589        0.9164     0.91641
   28          H           0.083648        0.9164     0.91635
   29          H           0.080544        0.9195     0.91946
 DIPOLE           X         Y         Z       TOTAL
 POINT-CHG.    -0.204     0.025    -0.220     0.301
 HYBRID         0.010     0.007    -0.004     0.013
 SUM           -0.194     0.032    -0.224     0.298


          ATOMIC ORBITAL ELECTRON POPULATIONS

    Atom      s        px        py        pz   
    1  C   1.19626   0.95891   0.94247   0.99154
    2  C   1.19233   0.98244   0.95104   0.96039
    3  C   1.18284   0.93682   0.95611   0.98979
    4  C   1.18298   0.98597   0.95100   0.94621
    5  C   1.15787   0.96902   0.95203   1.01209
    6  C   1.13788   1.00550   0.99721   0.96337
    7  C   1.13822   1.00749   0.95463   1.01079
    8  C   1.19305   0.94771   0.99150   0.99095
    9  C   1.19292   0.99087   0.99005   0.94918
   10  C   1.18135   0.96936   1.00700   1.01470
   11  C   1.18160   1.01122   1.00935   0.97005
   12  H   0.91573
   13  H   0.91834
   14  H   0.91418
   15  H   0.91553
   16  H   0.94853
   17  H   0.94901
   18  H   0.96179
   19  H   0.95935
   20  H   0.96213
   21  H   0.95921
   22  H   0.95922
   23  H   0.95887
   24  H   0.90100
   25  H   0.90111
   26  H   0.91969
   27  H   0.91641
   28  H   0.91635
   29  H   0.91946
 *******************************************************************************
 ** Site#: 14399           For non-commercial use only        Version 13.159M **
 *******************************************************************************
 ** Cite this work as: MOPAC2012, James J. P. Stewart, Stewart Computational  **
 ** Chemistry, Version 13.159M web: HTTP://OpenMOPAC.net  Days remaining:   6 **
 *******************************************************************************
 **                                                                           **
 **                                MOPAC2012                                  **
 **                                                                           **
 *******************************************************************************

                            PM3 CALCULATION RESULTS


 *******************************************************************************
 *  CALCULATION DONE:                                Mon Jun  2 11:07:09 2014  *
 *  PM3      - The PM3 Hamiltonian to be used
 *  OLDGEO   - PREVIOUS GEOMETRY TO BE USED
 *  PRECISE  - CRITERIA TO BE INCREASED BY 100 TIMES
 *  NOSYM    - POINT-GROUP SYMMETRY SET TO C1
 *  T=       - A TIME OF 172800.0 SECONDS REQUESTED
 *  DUMP=N   - RESTART FILE WRITTEN EVERY  7200.000 SECONDS
 *  THERMO   - THERMODYNAMIC QUANTITIES TO BE CALCULATED
 *******************************************************************************
oldgeo thermo nosym precise  pm3

   ATOM   CHEMICAL          X               Y               Z
  NUMBER   SYMBOL      (ANGSTROMS)     (ANGSTROMS)     (ANGSTROMS)
 
     1       C         -0.40837606  *   0.51393033  *   0.38218335  *
     2       C          0.45516723  *  -1.25210199  *  -0.59757346  *
     3       C          0.68327375  *   0.28167679  *  -0.69995830  *
     4       C         -0.70843101  *  -1.01106133  *   0.40353057  *
     5       C         -1.57797525  *   1.37842409  *  -0.03963979  *
     6       C          0.05992767  *  -1.92289965  *  -1.88604212  *
     7       C         -1.20631020  *   2.84362110  *  -0.08157855  *
     8       C          2.03335812  *   0.78579016  *  -0.34981014  *
     9       C         -0.57112744  *  -1.69592790  *   1.71192990  *
    10       C          3.16092269  *   0.19901755  *  -0.73396551  *
    11       C         -1.07024023  *  -1.21345758  *   2.84409550  *
    12       H          0.00944010  *   0.88356252  *   1.34505225  *
    13       H          1.31728545  *  -1.78441893  *  -0.13841095  *
    14       H          0.40229636  *   0.69797029  *  -1.69377353  *
    15       H         -1.70444170  *  -1.26428175  *  -0.02435242  *
    16       H         -1.95701041  *   1.05369505  *  -1.02990733  *
    17       H         -2.41456298  *   1.21642644  *   0.66936935  *
    18       H         -0.88842193  *   3.21014668  *   0.90363114  *
    19       H         -0.37806975  *   3.02691603  *  -0.77972836  *
    20       H         -2.05399054  *   3.46095100  *  -0.40455006  *
    21       H         -0.24058209  *  -2.96413433  *  -1.71255786  *
    22       H         -0.78289095  *  -1.41407481  *  -2.37410618  *
    23       H          0.89702710  *  -1.92923736  *  -2.59635489  *
    24       H          2.04818624  *   1.71013860  *   0.24166190  *
    25       H         -0.03901759  *  -2.65509402  *   1.69096712  *
    26       H          4.14067262  *   0.59467898  *  -0.48547709  *
    27       H          3.18418370  *  -0.71471944  *  -1.32247525  *
    28       H         -1.60250828  *  -0.26718795  *   2.90046200  *
    29       H         -0.97965614  *  -1.73282184  *   3.79285905  *
 


          CARTESIAN COORDINATES 

    NO.       ATOM         X         Y         Z

     1         C       -0.4084    0.5139    0.3822
     2         C        0.4552   -1.2521   -0.5976
     3         C        0.6833    0.2817   -0.7000
     4         C       -0.7084   -1.0111    0.4035
     5         C       -1.5780    1.3784   -0.0396
     6         C        0.0599   -1.9229   -1.8860
     7         C       -1.2063    2.8436   -0.0816
     8         C        2.0334    0.7858   -0.3498
     9         C       -0.5711   -1.6959    1.7119
    10         C        3.1609    0.1990   -0.7340
    11         C       -1.0702   -1.2135    2.8441
    12         H        0.0094    0.8836    1.3451
    13         H        1.3173   -1.7844   -0.1384
    14         H        0.4023    0.6980   -1.6938
    15         H       -1.7044   -1.2643   -0.0244
    16         H       -1.9570    1.0537   -1.0299
    17         H       -2.4146    1.2164    0.6694
    18         H       -0.8884    3.2101    0.9036
    19         H       -0.3781    3.0269   -0.7797
    20         H       -2.0540    3.4610   -0.4046
    21         H       -0.2406   -2.9641   -1.7126
    22         H       -0.7829   -1.4141   -2.3741
    23         H        0.8970   -1.9292   -2.5964
    24         H        2.0482    1.7101    0.2417
    25         H       -0.0390   -2.6551    1.6910
    26         H        4.1407    0.5947   -0.4855
    27         H        3.1842   -0.7147   -1.3225
    28         H       -1.6025   -0.2672    2.9005
    29         H       -0.9797   -1.7328    3.7929

  H: (PM3): J. J. P. STEWART, J. COMP. CHEM. 10, 209 (1989).
  C: (PM3): J. J. P. STEWART, J. COMP. CHEM. 10, 209 (1989).

           Empirical Formula: C11 H18  =    29 atoms



      MOLECULAR POINT GROUP   :   C1  


      RHF CALCULATION, NO. OF DOUBLY OCCUPIED LEVELS =   31



          HEAT OF FORMATION =      15.116480 KCALS/MOLE


          INTERNAL COORDINATE DERIVATIVES

   NUMBER  ATOM       BOND         ANGLE      DIHEDRAL

     1       C     -0.000891     0.000193    -0.000752
     2       C      0.003095    -0.000951     0.001416
     3       C      0.000552     0.000589     0.000610
     4       C      0.000969    -0.000595     0.001606
     5       C     -0.003162     0.000303     0.000457
     6       C     -0.000848    -0.001762    -0.000194
     7       C     -0.002725    -0.003088    -0.000408
     8       C     -0.011444    -0.012847    -0.004583
     9       C     -0.002602    -0.000580     0.003660
    10       C      0.004880     0.006138     0.005693
    11       C      0.000414    -0.002785    -0.005376
    12       H      0.000196     0.001535     0.000429
    13       H      0.004150     0.002306     0.000926
    14       H      0.004815     0.003433     0.005053
    15       H      0.001527    -0.000382     0.002444
    16       H     -0.000751     0.005103     0.004409
    17       H      0.006910    -0.000697     0.002086
    18       H     -0.002379     0.000986    -0.003113
    19       H     -0.004412    -0.010481    -0.006150
    20       H     -0.006543     0.001318     0.000737
    21       H     -0.003963    -0.003691    -0.005835
    22       H      0.000912     0.003592     0.003207
    23       H      0.003522     0.000777     0.003904
    24       H     -0.001124     0.006920    -0.001004
    25       H     -0.004675    -0.000513    -0.002836
    26       H      0.003280    -0.003634    -0.001860
    27       H      0.009577     0.003410    -0.002575
    28       H     -0.000350     0.001707    -0.001684
    29       H      0.001070     0.003694    -0.000269


          GRADIENT NORM =   0.03598


          TIME FOR SCF CALCULATION =    0.01

          TIME FOR DERIVATIVES     =    0.01

          MOLECULAR WEIGHT =  150.26



          ROTATIONAL CONSTANTS IN CM(-1)

          A =    0.03458084   B =    0.03092967   C =    0.02303491



           PRINCIPAL MOMENTS OF INERTIA IN UNITS OF 10**(-40)*GRAM-CM**2

          A =      809.4879   B =      905.0459   C =     1215.2328


          ORIENTATION OF MOLECULE IN FORCE CALCULATION

    NO.       ATOM         X         Y         Z

     1          C      -0.8014   -0.0985   -0.1366
     2          C       1.3950   -0.0985   -0.1366
     3          C       0.2972    1.0014   -0.1366
     4          C       0.2972   -1.1927   -0.2452
     5          C      -1.7682   -0.0612   -1.3016
     6          C       2.3537   -0.0390   -1.2958
     7          C      -2.7814    1.0516   -1.1545
     8          C       0.2665    1.9211    1.0264
     9          C       0.3182   -2.2201    0.8243
    10          C       1.3529    2.4569    1.5703
    11          C      -0.7709   -2.8433    1.2590
    12          H      -1.3639   -0.1474    0.8223
    13          H       1.9572   -0.1436    0.8223
    14          H       0.2953    1.6143   -1.0663
    15          H       0.3001   -1.7096   -1.2311
    16          H      -1.2144    0.0523   -2.2557
    17          H      -2.2831   -1.0406   -1.3686
    18          H      -3.3906    0.9289   -0.2491
    19          H      -2.2918    2.0328   -1.0868
    20          H      -3.4670    1.0825   -2.0107
    21          H       2.9954   -0.9290   -1.3230
    22          H       1.8310    0.0194   -2.2606
    23          H       3.0048    0.8417   -1.2200
    24          H      -0.7347    2.1588    1.4080
    25          H       1.3080   -2.4574    1.2338
    26          H       1.3091    3.1451    2.4086
    27          H       2.3592    2.2468    1.2168
    28          H      -1.7662   -2.6328    0.8755
    29          H      -0.7409   -3.6072    2.0295


    FIRST DERIVATIVES WILL BE USED IN THE CALCULATION OF SECOND DERIVATIVES

          ESTIMATED TIME TO COMPLETE CALCULATION =        5.47 SECONDS

    FOR POINT-GROUP C1   THERE ARE   1 UNIQUE SYMMETRY FUNCTIONS.

 STEP:   1 TIME =     0.05 SECS, INTEGRAL =      0.05 TIME LEFT: 172799.94
 STEP:   2 TIME =     0.05 SECS, INTEGRAL =      0.10 TIME LEFT: 172799.89
 STEP:   3 TIME =     0.05 SECS, INTEGRAL =      0.15 TIME LEFT: 172799.84
 STEP:   4 TIME =     0.05 SECS, INTEGRAL =      0.20 TIME LEFT: 172799.79
 STEP:   5 TIME =     0.05 SECS, INTEGRAL =      0.25 TIME LEFT: 172799.74
 STEP:   6 TIME =     0.05 SECS, INTEGRAL =      0.29 TIME LEFT: 172799.69
 STEP:   7 TIME =     0.05 SECS, INTEGRAL =      0.34 TIME LEFT: 172799.64
 STEP:   8 TIME =     0.05 SECS, INTEGRAL =      0.39 TIME LEFT: 172799.59
 STEP:   9 TIME =     0.05 SECS, INTEGRAL =      0.44 TIME LEFT: 172799.54
 STEP:  10 TIME =     0.05 SECS, INTEGRAL =      0.50 TIME LEFT: 172799.49
 STEP:  11 TIME =     0.05 SECS, INTEGRAL =      0.55 TIME LEFT: 172799.44
 STEP:  12 TIME =     0.05 SECS, INTEGRAL =      0.60 TIME LEFT: 172799.39
 STEP:  13 TIME =     0.05 SECS, INTEGRAL =      0.64 TIME LEFT: 172799.34
 STEP:  14 TIME =     0.05 SECS, INTEGRAL =      0.69 TIME LEFT: 172799.29
 STEP:  15 TIME =     0.05 SECS, INTEGRAL =      0.74 TIME LEFT: 172799.24
 STEP:  16 TIME =     0.05 SECS, INTEGRAL =      0.79 TIME LEFT: 172799.20
 STEP:  17 TIME =     0.05 SECS, INTEGRAL =      0.84 TIME LEFT: 172799.15
 STEP:  18 TIME =     0.05 SECS, INTEGRAL =      0.88 TIME LEFT: 172799.10
 STEP:  19 TIME =     0.05 SECS, INTEGRAL =      0.93 TIME LEFT: 172799.05
 STEP:  20 TIME =     0.05 SECS, INTEGRAL =      0.98 TIME LEFT: 172799.00
 STEP:  21 TIME =     0.05 SECS, INTEGRAL =      1.03 TIME LEFT: 172798.96
 STEP:  22 TIME =     0.05 SECS, INTEGRAL =      1.08 TIME LEFT: 172798.91
 STEP:  23 TIME =     0.05 SECS, INTEGRAL =      1.13 TIME LEFT: 172798.85
 STEP:  24 TIME =     0.05 SECS, INTEGRAL =      1.18 TIME LEFT: 172798.80
 STEP:  25 TIME =     0.05 SECS, INTEGRAL =      1.23 TIME LEFT: 172798.75
 STEP:  26 TIME =     0.05 SECS, INTEGRAL =      1.28 TIME LEFT: 172798.70
 STEP:  27 TIME =     0.05 SECS, INTEGRAL =      1.33 TIME LEFT: 172798.65
 STEP:  28 TIME =     0.05 SECS, INTEGRAL =      1.38 TIME LEFT: 172798.60
 STEP:  29 TIME =     0.05 SECS, INTEGRAL =      1.43 TIME LEFT: 172798.55
 STEP:  30 TIME =     0.05 SECS, INTEGRAL =      1.48 TIME LEFT: 172798.50
 STEP:  31 TIME =     0.05 SECS, INTEGRAL =      1.53 TIME LEFT: 172798.46
 STEP:  32 TIME =     0.05 SECS, INTEGRAL =      1.58 TIME LEFT: 172798.41
 STEP:  33 TIME =     0.05 SECS, INTEGRAL =      1.63 TIME LEFT: 172798.36
 STEP:  34 TIME =     0.05 SECS, INTEGRAL =      1.68 TIME LEFT: 172798.31
 STEP:  35 TIME =     0.05 SECS, INTEGRAL =      1.73 TIME LEFT: 172798.26
 STEP:  36 TIME =     0.05 SECS, INTEGRAL =      1.78 TIME LEFT: 172798.21
 STEP:  37 TIME =     0.05 SECS, INTEGRAL =      1.83 TIME LEFT: 172798.16
 STEP:  38 TIME =     0.05 SECS, INTEGRAL =      1.88 TIME LEFT: 172798.11
 STEP:  39 TIME =     0.05 SECS, INTEGRAL =      1.93 TIME LEFT: 172798.06
 STEP:  40 TIME =     0.05 SECS, INTEGRAL =      1.98 TIME LEFT: 172798.01
 STEP:  41 TIME =     0.05 SECS, INTEGRAL =      2.03 TIME LEFT: 172797.96
 STEP:  42 TIME =     0.05 SECS, INTEGRAL =      2.07 TIME LEFT: 172797.91
 STEP:  43 TIME =     0.05 SECS, INTEGRAL =      2.13 TIME LEFT: 172797.86
 STEP:  44 TIME =     0.05 SECS, INTEGRAL =      2.18 TIME LEFT: 172797.81
 STEP:  45 TIME =     0.05 SECS, INTEGRAL =      2.22 TIME LEFT: 172797.76
 STEP:  46 TIME =     0.05 SECS, INTEGRAL =      2.27 TIME LEFT: 172797.71
 STEP:  47 TIME =     0.05 SECS, INTEGRAL =      2.32 TIME LEFT: 172797.66
 STEP:  48 TIME =     0.05 SECS, INTEGRAL =      2.37 TIME LEFT: 172797.61
 STEP:  49 TIME =     0.05 SECS, INTEGRAL =      2.42 TIME LEFT: 172797.56
 STEP:  50 TIME =     0.05 SECS, INTEGRAL =      2.47 TIME LEFT: 172797.51
 STEP:  51 TIME =     0.05 SECS, INTEGRAL =      2.52 TIME LEFT: 172797.46
 STEP:  52 TIME =     0.05 SECS, INTEGRAL =      2.57 TIME LEFT: 172797.41
 STEP:  53 TIME =     0.05 SECS, INTEGRAL =      2.62 TIME LEFT: 172797.36
 STEP:  54 TIME =     0.05 SECS, INTEGRAL =      2.67 TIME LEFT: 172797.32
 STEP:  55 TIME =     0.05 SECS, INTEGRAL =      2.72 TIME LEFT: 172797.27
 STEP:  56 TIME =     0.05 SECS, INTEGRAL =      2.77 TIME LEFT: 172797.22
 STEP:  57 TIME =     0.05 SECS, INTEGRAL =      2.82 TIME LEFT: 172797.17
 STEP:  58 TIME =     0.05 SECS, INTEGRAL =      2.87 TIME LEFT: 172797.12
 STEP:  59 TIME =     0.05 SECS, INTEGRAL =      2.92 TIME LEFT: 172797.07
 STEP:  60 TIME =     0.05 SECS, INTEGRAL =      2.97 TIME LEFT: 172797.02
 STEP:  61 TIME =     0.05 SECS, INTEGRAL =      3.01 TIME LEFT: 172796.97
 STEP:  62 TIME =     0.05 SECS, INTEGRAL =      3.06 TIME LEFT: 172796.92
 STEP:  63 TIME =     0.05 SECS, INTEGRAL =      3.11 TIME LEFT: 172796.87
 STEP:  64 TIME =     0.05 SECS, INTEGRAL =      3.17 TIME LEFT: 172796.82
 STEP:  65 TIME =     0.05 SECS, INTEGRAL =      3.22 TIME LEFT: 172796.76
 STEP:  66 TIME =     0.05 SECS, INTEGRAL =      3.27 TIME LEFT: 172796.72
 STEP:  67 TIME =     0.05 SECS, INTEGRAL =      3.32 TIME LEFT: 172796.67
 STEP:  68 TIME =     0.05 SECS, INTEGRAL =      3.36 TIME LEFT: 172796.62
 STEP:  69 TIME =     0.05 SECS, INTEGRAL =      3.41 TIME LEFT: 172796.57
 STEP:  70 TIME =     0.05 SECS, INTEGRAL =      3.46 TIME LEFT: 172796.52
 STEP:  71 TIME =     0.05 SECS, INTEGRAL =      3.52 TIME LEFT: 172796.47
 STEP:  72 TIME =     0.05 SECS, INTEGRAL =      3.57 TIME LEFT: 172796.42
 STEP:  73 TIME =     0.05 SECS, INTEGRAL =      3.61 TIME LEFT: 172796.37
 STEP:  74 TIME =     0.05 SECS, INTEGRAL =      3.67 TIME LEFT: 172796.32
 STEP:  75 TIME =     0.05 SECS, INTEGRAL =      3.72 TIME LEFT: 172796.27
 STEP:  76 TIME =     0.05 SECS, INTEGRAL =      3.77 TIME LEFT: 172796.22
 STEP:  77 TIME =     0.05 SECS, INTEGRAL =      3.82 TIME LEFT: 172796.17
 STEP:  78 TIME =     0.05 SECS, INTEGRAL =      3.87 TIME LEFT: 172796.12
 STEP:  79 TIME =     0.05 SECS, INTEGRAL =      3.91 TIME LEFT: 172796.07
 STEP:  80 TIME =     0.05 SECS, INTEGRAL =      3.97 TIME LEFT: 172796.02
 STEP:  81 TIME =     0.05 SECS, INTEGRAL =      4.02 TIME LEFT: 172795.97
 STEP:  82 TIME =     0.05 SECS, INTEGRAL =      4.07 TIME LEFT: 172795.92
 STEP:  83 TIME =     0.05 SECS, INTEGRAL =      4.12 TIME LEFT: 172795.87
 STEP:  84 TIME =     0.05 SECS, INTEGRAL =      4.17 TIME LEFT: 172795.81
 STEP:  85 TIME =     0.05 SECS, INTEGRAL =      4.22 TIME LEFT: 172795.76
 STEP:  86 TIME =     0.05 SECS, INTEGRAL =      4.27 TIME LEFT: 172795.71
 STEP:  87 TIME =     0.05 SECS, INTEGRAL =      4.32 TIME LEFT: 172795.66

(To convert to Hartree/Bohr^2, multiply by (10^(-21) x N x a0^2)/(4.184 x 627.51) = 0.0642)


           FORCE MATRIX IN MILLIDYNES/ANGSTROM


                  C  1       C  2       C  3       C  4       C  5       C  6
 ------------------------------------------------------------------------------
     C    1  14.365195
     C    2   1.780927  14.441838
     C    3   3.230498   3.230404  14.739473
     C    4   3.221369   3.254812   1.785503  14.754284
     C    5   4.308445   0.041865   0.527132   0.536854  14.488673
     C    6   0.041994   4.623299   0.548788   0.546709   0.006054  14.514147
     C    7   0.661052   0.005088   0.030745   0.049753   4.465710   0.001307
     C    8   0.567049   0.542576   5.072357   0.040938   0.034474   0.033544
     C    9   0.547984   0.565740   0.040059   5.069818   0.033136   0.034799
     C   10   0.046281   0.050925   0.824455   0.006288   0.006796   0.005176
     C   11   0.050937   0.047097   0.006364   0.831210   0.005751   0.007070
     H   12   4.356270   0.025566   0.438333   0.435909   0.427877   0.001831
     H   13   0.025723   4.367428   0.436483   0.437755   0.001473   0.420634
     H   14   0.442244   0.442738   4.316139   0.025330   0.031423   0.033170
     H   15   0.442642   0.442305   0.025343   4.324810   0.036597   0.033476
     H   16   0.450017   0.001965   0.023768   0.021120   4.429089   0.002136
     H   17   0.431672   0.003672   0.046159   0.019756   4.444849   0.001248
     H   18   0.023504   0.000446   0.001984   0.001541   0.463713   0.000223
     H   19   0.021375   0.000438   0.006844   0.001895   0.462580   0.000456
     H   20   0.051823   0.000721   0.002088   0.008527   0.451125   0.000296
     H   21   0.004031   0.451380   0.047474   0.012593   0.001115   4.746571
     H   22   0.002090   0.468873   0.021063   0.020482   0.002178   4.703093
     H   23   0.003974   0.451482   0.012515   0.047547   0.001092   4.736643
     H   24   0.030466   0.035781   0.434621   0.002109   0.002432   0.004728
     H   25   0.034271   0.031537   0.002255   0.435479   0.004141   0.002188
     H   26   0.010458   0.006922   0.133044   0.001776   0.001414   0.000406
     H   27   0.004753   0.018450   0.099115   0.001808   0.001109   0.004114
     H   28   0.016988   0.004093   0.001708   0.099244   0.004968   0.001161
     H   29   0.007473   0.009617   0.001635   0.132972   0.000894   0.001537


                  C  7       C  8       C  9       C 10       C 11       H 12
 ------------------------------------------------------------------------------
     C    7  14.371144
     C    8   0.005341  18.284150
     C    9   0.006752   0.006220  18.274903
     C   10   0.001017  11.060765   0.001982  18.011983
     C   11   0.000916   0.002021  11.055485   0.001514  18.010859
     H   12   0.031618   0.033512   0.025818   0.003143   0.013795   4.870575
     H   13   0.000560   0.024835   0.033945   0.016135   0.003238   0.002298
     H   14   0.007956   0.389485   0.001404   0.025928   0.000991   0.030187
     H   15   0.002888   0.001379   0.391065   0.000837   0.025473   0.029932
     H   16   0.437745   0.001333   0.001134   0.000788   0.000899   0.041792
     H   17   0.438845   0.006062   0.001702   0.001636   0.002747   0.026110
     H   18   4.723993   0.000801   0.000603   0.000491   0.000366   0.021232
     H   19   4.711082   0.002893   0.000819   0.000649   0.000394   0.002067
     H   20   4.756320   0.000688   0.001371   0.000496   0.000380   0.001975
     H   21   0.000279   0.005803   0.001660   0.000729   0.000759   0.000568
     H   22   0.000357   0.001578   0.001386   0.000955   0.000716   0.000531
     H   23   0.000313   0.001572   0.005828   0.002136   0.001652   0.000562
     H   24   0.001951   4.768826   0.001239   0.454752   0.000809   0.028346
     H   25   0.001428   0.001200   4.780797   0.001085   0.455011   0.002902
     H   26   0.000425   0.463467   0.000944   5.113214   0.000419   0.000666
     H   27   0.000345   0.492935   0.001011   5.059014   0.000569   0.000808
     H   28   0.001048   0.000893   0.493084   0.000561   5.058642   0.020667
     H   29   0.000570   0.000630   0.463351   0.000489   5.114771   0.001236


                  H 13       H 14       H 15       H 16       H 17       H 18
 ------------------------------------------------------------------------------
     H   13   4.878337
     H   14   0.029933   4.811599
     H   15   0.030290   0.002376   4.820941
     H   16   0.000530   0.026628   0.020848   5.042959
     H   17   0.000550   0.003179   0.010642   0.566406   5.048833
     H   18   0.000122   0.000566   0.000484   0.047826   0.025426   5.466719
     H   19   0.000249   0.009971   0.000511   0.023846   0.047750   0.577255
     H   20   0.000081   0.000595   0.000730   0.030834   0.028106   0.571098
     H   21   0.029164   0.003074   0.005260   0.000219   0.000331   0.000102
     H   22   0.044032   0.023147   0.021940   0.006404   0.000220   0.000138
     H   23   0.030633   0.004913   0.003085   0.000234   0.000269   0.000075
     H   24   0.002842   0.014221   0.000502   0.000698   0.000560   0.001516
     H   25   0.029398   0.000501   0.014502   0.000368   0.000364   0.000178
     H   26   0.001207   0.015257   0.000160   0.000174   0.000313   0.000143
     H   27   0.025441   0.012210   0.000392   0.000223   0.000199   0.000190
     H   28   0.000684   0.000413   0.011918   0.000715   0.009080   0.000295
     H   29   0.000602   0.000122   0.014713   0.000263   0.000526   0.000183


                  H 19       H 20       H 21       H 22       H 23       H 24
 ------------------------------------------------------------------------------
     H   19   5.447206
     H   20   0.569064   5.490959
     H   21   0.000132   0.000120   5.471028
     H   22   0.000132   0.000100   0.571419   5.438796
     H   23   0.000126   0.000097   0.562168   0.569863   5.457645
     H   24   0.005469   0.000533   0.001038   0.000434   0.000387   5.133021
     H   25   0.000173   0.000292   0.001383   0.000622   0.000574   0.000583
     H   26   0.000281   0.000170   0.000221   0.000380   0.000494   0.079437
     H   27   0.000239   0.000175   0.000577   0.000734   0.008154   0.119820
     H   28   0.000278   0.000286   0.000233   0.000227   0.000278   0.000535
     H   29   0.000207   0.000204   0.000181   0.000117   0.000304   0.000373


                  H 25       H 26       H 27       H 28       H 29
 ------------------------------------------------------------------
     H   25   5.146570
     H   26   0.000352   5.500642
     H   27   0.000542   0.418177   5.449322
     H   28   0.118929   0.000182   0.000216   5.446787
     H   29   0.079160   0.000181   0.000221   0.416687   5.501075


          HEAT OF FORMATION =      15.116480 KCALS/MOLE

          ZERO POINT ENERGY     161.960 KCAL/MOL


           NORMAL COORDINATE ANALYSIS (Total motion = 1 Angstrom)


   Root No.       1         2         3         4         5         6         7         8

                 1 A       2 A       3 A       4 A       5 A       6 A       7 A       8 A   

                  47.1      76.7      97.6     107.8     144.6     164.5     186.0     195.1
  
           1   -0.0033   -0.0072   -0.0016   -0.0044    0.0057   -0.0159   -0.0014    0.0013
           2   -0.0015   -0.0099    0.0052   -0.0096   -0.0046    0.0087   -0.0085   -0.0067
           3   -0.0047    0.0138    0.0061   -0.0076   -0.0070   -0.0003    0.0003    0.0088
           4   -0.0027   -0.0073   -0.0012   -0.0044    0.0054   -0.0156   -0.0015    0.0007
           5    0.0030   -0.0003    0.0026   -0.0081   -0.0082    0.0015    0.0009    0.0041
           6   -0.0169    0.0029    0.0024    0.0053   -0.0046    0.0067   -0.0001    0.0006
           7   -0.0051   -0.0120   -0.0004   -0.0053    0.0073   -0.0104   -0.0063   -0.0046
           8    0.0004   -0.0053    0.0038   -0.0094   -0.0064    0.0050   -0.0047   -0.0010
           9    0.0044    0.0071    0.0171    0.0129   -0.0020   -0.0010   -0.0021    0.0021
          10   -0.0015   -0.0028   -0.0023   -0.0032    0.0025   -0.0177    0.0033    0.0058
          11   -0.0001   -0.0053    0.0034   -0.0080   -0.0075    0.0048   -0.0044   -0.0010
          12    0.0007    0.0060    0.0131   -0.0147    0.0036    0.0030    0.0003    0.0022
          13    0.0086   -0.0127    0.0157    0.0038    0.0134   -0.0028   -0.0031   -0.0015
          14   -0.0009   -0.0105    0.0007    0.0091    0.0207    0.0173   -0.0079   -0.0178
          15   -0.0150    0.0184   -0.0091   -0.0141   -0.0123   -0.0129    0.0020    0.0112
          16   -0.0275   -0.0121   -0.0200    0.0049   -0.0083    0.0000    0.0009   -0.0048
          17    0.0073    0.0051    0.0058    0.0100   -0.0211   -0.0077    0.0260    0.0167
          18   -0.0376   -0.0007   -0.0134    0.0143   -0.0174    0.0204    0.0033   -0.0037
          19    0.0147    0.0408   -0.0077    0.0009    0.0124   -0.0145    0.0089    0.0113
          20    0.0069    0.0435   -0.0200    0.0049    0.0160    0.0074    0.0029   -0.0051
          21   -0.0329   -0.0210   -0.0184   -0.0004    0.0246   -0.0155    0.0044   -0.0026
          22   -0.0035   -0.0086    0.0159   -0.0010   -0.0134    0.0054    0.0015    0.0000
          23   -0.0179   -0.0016   -0.0095   -0.0227   -0.0055    0.0118   -0.0018    0.0079
          24    0.0192    0.0041    0.0285    0.0236   -0.0038   -0.0062   -0.0047   -0.0054
          25    0.0097    0.0085   -0.0102    0.0026    0.0014    0.0100   -0.0040   -0.0016
          26    0.0131   -0.0098    0.0097   -0.0183    0.0036    0.0009    0.0006   -0.0049
          27    0.0134    0.0014    0.0194   -0.0248    0.0149   -0.0014    0.0057   -0.0016
          28   -0.0036   -0.0076    0.0243    0.0014   -0.0300    0.0196    0.0106    0.0055
          29   -0.0347    0.0188    0.0182    0.0225    0.0217   -0.0157   -0.0153   -0.0040
          30    0.0359   -0.0181   -0.0150   -0.0253    0.0017   -0.0066   -0.0092   -0.0043
          31    0.0147    0.0165   -0.0109    0.0012    0.0054    0.0352   -0.0103   -0.0120
          32    0.0231   -0.0308   -0.0172    0.0223   -0.0122   -0.0311    0.0062    0.0102
          33    0.0401   -0.0089   -0.0203    0.0291    0.0022    0.0142   -0.0012   -0.0051
          34   -0.0124   -0.0021   -0.0136   -0.0112   -0.0015   -0.0227   -0.0003    0.0050
          35   -0.0031   -0.0127    0.0039   -0.0215   -0.0064    0.0108   -0.0092   -0.0060
          36   -0.0102    0.0165   -0.0013   -0.0120   -0.0112   -0.0052    0.0009    0.0108
          37    0.0171   -0.0038    0.0131   -0.0116    0.0143   -0.0252   -0.0028    0.0037
          38    0.0023    0.0025    0.0020   -0.0186   -0.0032    0.0011    0.0027    0.0022
          39   -0.0286    0.0009   -0.0062    0.0090   -0.0101    0.0130    0.0009   -0.0014
          40   -0.0111   -0.0195   -0.0033   -0.0018    0.0132   -0.0068   -0.0089   -0.0128
          41    0.0152   -0.0079    0.0153    0.0017   -0.0043    0.0010   -0.0075   -0.0048
          42    0.0142    0.0052    0.0247    0.0201   -0.0009   -0.0038   -0.0041   -0.0007
          43   -0.0061   -0.0052   -0.0032    0.0014    0.0014   -0.0205    0.0056    0.0083
          44   -0.0126   -0.0021   -0.0041    0.0026   -0.0171    0.0071   -0.0072    0.0024
          45    0.0073    0.0043    0.0169   -0.0201    0.0087    0.0016    0.0021    0.0004
          46    0.0199   -0.0127    0.0297    0.0104    0.0183    0.0105   -0.0036   -0.0010
          47   -0.0099   -0.0725    0.0183    0.0277    0.0529    0.0346   -0.0148   -0.0369
          48   -0.0097    0.0109    0.0010   -0.0081   -0.0057   -0.0034    0.0010    0.0091
          49    0.0026   -0.0577    0.0343    0.0057    0.0160    0.0054   -0.0116   -0.0105
          50    0.0024    0.0105   -0.0081    0.0097    0.0221    0.0147   -0.0035   -0.0141
          51   -0.0154    0.0591   -0.0258   -0.0363   -0.0474   -0.0351    0.0049    0.0259
          52    0.0095    0.0482   -0.0165   -0.0053   -0.0261   -0.0580   -0.0406   -0.0655
          53    0.0210    0.1156   -0.0347   -0.0133   -0.0469   -0.0335   -0.0324   -0.0493
          54   -0.0345   -0.0063   -0.0263   -0.0070   -0.0097   -0.0504   -0.0338   -0.0604
          55    0.0201    0.0868   -0.0282   -0.0011    0.0154   -0.0219    0.0237    0.0284
          56    0.0049    0.0244   -0.0105    0.0044    0.0083    0.0066   -0.0095   -0.0204
          57   -0.0419   -0.0756   -0.0101    0.0216    0.1178    0.0497    0.0807    0.1009
          58    0.0192    0.0303    0.0023    0.0069    0.0485    0.0271    0.0545    0.0827
          59    0.0011    0.0338   -0.0316    0.0201    0.0829    0.0405    0.0597    0.0654
          60   -0.0367   -0.0129   -0.0268   -0.0046   -0.0016   -0.0476   -0.0300   -0.0571
          61   -0.0267   -0.0079   -0.0189    0.0064   -0.0108   -0.0106    0.1142   -0.0661
          62    0.0084    0.0082    0.0071    0.0114   -0.0230   -0.0156    0.1057   -0.0253
          63   -0.0535   -0.0038   -0.0258    0.0064   -0.0161    0.0283    0.0780   -0.0697
          64   -0.0489   -0.0161   -0.0364    0.0130   -0.0207    0.0141    0.0019   -0.0091
          65    0.0084    0.0032    0.0066    0.0240   -0.0305    0.0003   -0.1147    0.1176
          66   -0.0260    0.0013   -0.0046    0.0108   -0.0114    0.0134   -0.0057    0.0046
          67   -0.0273   -0.0161   -0.0205    0.0028   -0.0053    0.0098   -0.1118    0.0560
          68    0.0081    0.0082    0.0070    0.0100   -0.0220   -0.0158    0.1149   -0.0329
          69   -0.0502   -0.0025   -0.0228    0.0336   -0.0360    0.0314   -0.0585    0.0502
          70   -0.0041   -0.0058    0.0256    0.0062   -0.0210    0.0103    0.0047    0.0008
          71   -0.0157   -0.0168   -0.0437   -0.0720   -0.0247    0.0392    0.0101    0.0255
          72    0.0163    0.0209    0.0746    0.0726   -0.0108   -0.0112   -0.0044   -0.0145
          73    0.0154    0.0100   -0.0192    0.0140   -0.0017    0.0214   -0.0082   -0.0046
          74    0.0133    0.0047    0.0374   -0.0614    0.0250    0.0204    0.0015   -0.0187
          75   -0.0001    0.0062    0.0570   -0.0770    0.0350   -0.0164    0.0160   -0.0031
          76   -0.0054   -0.0034    0.0419    0.0124   -0.0529    0.0383    0.0233    0.0120
          77   -0.0472    0.0221    0.0110    0.0161    0.0241   -0.0111   -0.0134    0.0037
          78    0.0461   -0.0207   -0.0082   -0.0196   -0.0015   -0.0095   -0.0102   -0.0102
          79   -0.0021   -0.0108    0.0145   -0.0071   -0.0228    0.0145    0.0065    0.0041
          80   -0.0359    0.0329    0.0496    0.0676    0.0427   -0.0447   -0.0288   -0.0224
          81    0.0411   -0.0356   -0.0617   -0.0765    0.0105   -0.0046   -0.0131    0.0026
          82    0.0087    0.0154   -0.0014   -0.0114    0.0081    0.0225   -0.0059   -0.0081
          83    0.0217   -0.0448   -0.0426    0.0608   -0.0337   -0.0562    0.0069    0.0268
          84    0.0551   -0.0139   -0.0588    0.0830   -0.0164    0.0346   -0.0126   -0.0066
          85    0.0253    0.0246   -0.0211    0.0127    0.0064    0.0718   -0.0207   -0.0259
          86    0.0325   -0.0347   -0.0151    0.0181   -0.0048   -0.0344    0.0104    0.0073
          87    0.0489   -0.0131   -0.0178    0.0246    0.0095    0.0097    0.0033   -0.0075


   Root No.       9        10        11        12        13        14        15        16

                 9 A      10 A      11 A      12 A      13 A      14 A      15 A      16 A   

                 206.3     241.9     319.4     386.8     397.4     433.9     479.7     511.2
  
           1   -0.0037    0.0007    0.0046   -0.0046    0.0092   -0.0079   -0.0202   -0.0008
           2   -0.0108   -0.0108    0.0059   -0.0190    0.0111    0.0016   -0.0110   -0.0211
           3   -0.0186    0.0012   -0.0012    0.0175    0.0120    0.0443    0.0082   -0.0130
           4   -0.0023   -0.0027    0.0084    0.0037    0.0154   -0.0117   -0.0211    0.0110
           5    0.0021   -0.0067   -0.0247   -0.0163    0.0083    0.0024    0.0022    0.0250
           6   -0.0060    0.0097   -0.0125    0.0023    0.0027   -0.0426   -0.0178   -0.0195
           7   -0.0099   -0.0033    0.0235   -0.0038    0.0077   -0.0163   -0.0164   -0.0178
           8   -0.0064   -0.0092   -0.0117   -0.0241    0.0024    0.0029   -0.0027    0.0021
           9   -0.0117    0.0077   -0.0021    0.0251   -0.0213    0.0016   -0.0201    0.0162
          10    0.0042    0.0005   -0.0105    0.0098    0.0122   -0.0208   -0.0085    0.0236
          11   -0.0046   -0.0119   -0.0123   -0.0143    0.0050    0.0029   -0.0078   -0.0036
          12   -0.0061    0.0070   -0.0102   -0.0116    0.0323   -0.0107    0.0210    0.0083
          13   -0.0113    0.0226   -0.0125   -0.0037    0.0043    0.0333   -0.0027   -0.0159
          14    0.0014    0.0126    0.0065    0.0239    0.0246    0.0051   -0.0006    0.0012
          15   -0.0114   -0.0164    0.0116    0.0150    0.0167    0.0199   -0.0114   -0.0107
          16    0.0185   -0.0189    0.0153    0.0007    0.0073    0.0323    0.0024    0.0284
          17    0.0181    0.0305    0.0285   -0.0077    0.0095   -0.0015    0.0048   -0.0035
          18    0.0132   -0.0022   -0.0060    0.0002   -0.0069   -0.0099    0.0043   -0.0185
          19    0.0018    0.0124   -0.0194   -0.0241   -0.0180    0.0209    0.0009   -0.0135
          20    0.0112   -0.0004    0.0043    0.0129    0.0117   -0.0115    0.0027    0.0094
          21    0.0176    0.0118   -0.0140   -0.0173   -0.0108    0.0022    0.0010   -0.0040
          22   -0.0059   -0.0031    0.0196   -0.0077   -0.0180   -0.0137    0.0347   -0.0015
          23   -0.0234    0.0193   -0.0059    0.0023   -0.0187    0.0007   -0.0067    0.0127
          24    0.0014   -0.0173   -0.0070    0.0016   -0.0111    0.0024   -0.0151    0.0179
          25   -0.0012   -0.0064   -0.0176    0.0299    0.0045   -0.0151    0.0264   -0.0115
          26    0.0273   -0.0165   -0.0008    0.0051   -0.0192    0.0070   -0.0136   -0.0139
          27    0.0267    0.0044    0.0049    0.0047    0.0128   -0.0079    0.0187    0.0099
          28    0.0035    0.0047   -0.0045   -0.0022   -0.0138   -0.0083    0.0079    0.0084
          29   -0.0243   -0.0040    0.0197   -0.0002   -0.0240   -0.0047    0.0152    0.0093
          30   -0.0164   -0.0095    0.0155   -0.0077   -0.0188   -0.0058    0.0198    0.0062
          31    0.0020   -0.0077   -0.0028    0.0087   -0.0069   -0.0057    0.0017   -0.0129
          32    0.0040   -0.0121   -0.0185    0.0283   -0.0095   -0.0024    0.0087   -0.0160
          33    0.0016    0.0086    0.0176   -0.0182    0.0013    0.0044   -0.0113    0.0115
          34   -0.0044   -0.0104    0.0134   -0.0008    0.0138   -0.0038   -0.0281   -0.0087
          35   -0.0164   -0.0146    0.0120   -0.0407    0.0282   -0.0036    0.0024   -0.0441
          36   -0.0185   -0.0060    0.0043    0.0177    0.0157    0.0452    0.0029   -0.0189
          37   -0.0121    0.0036    0.0091    0.0085    0.0214   -0.0163   -0.0267    0.0234
          38    0.0054   -0.0131   -0.0435   -0.0283    0.0270   -0.0036    0.0241    0.0424
          39    0.0009    0.0050   -0.0137   -0.0007   -0.0005   -0.0386   -0.0121   -0.0259
          40   -0.0106   -0.0019    0.0294   -0.0102    0.0103   -0.0502   -0.0427   -0.0451
          41    0.0003   -0.0168   -0.0119   -0.0273   -0.0030    0.0047   -0.0089    0.0174
          42   -0.0069    0.0010   -0.0027    0.0216   -0.0243    0.0028   -0.0239    0.0264
          43    0.0139    0.0062   -0.0227    0.0005    0.0101   -0.0596   -0.0226    0.0478
          44   -0.0202   -0.0112   -0.0151   -0.0113    0.0038    0.0082   -0.0209   -0.0149
          45    0.0034    0.0067   -0.0077   -0.0120    0.0323   -0.0134    0.0276    0.0145
          46   -0.0212    0.0366   -0.0198    0.0138    0.0107    0.0713    0.0144   -0.0228
          47    0.0064    0.0510   -0.0095    0.0414    0.0320    0.0335    0.0214    0.0046
          48   -0.0161   -0.0040    0.0054    0.0264    0.0208    0.0437    0.0009   -0.0138
          49   -0.0204    0.0332   -0.0142   -0.0009    0.0118    0.0521   -0.0025   -0.0271
          50    0.0067    0.0103    0.0056    0.0242    0.0213   -0.0016    0.0023    0.0079
          51   -0.0152   -0.0594    0.0313   -0.0132    0.0088   -0.0231   -0.0455   -0.0172
          52    0.0293    0.0623   -0.0395   -0.0414   -0.0347    0.0185    0.0106   -0.0124
          53    0.0185    0.0092    0.0080    0.0197    0.0129   -0.0109    0.0011    0.0109
          54    0.0373    0.0469   -0.0272   -0.0286   -0.0222    0.0006    0.0075   -0.0032
          55    0.0128    0.0000   -0.0263   -0.0469   -0.0421    0.0047    0.0060   -0.0096
          56    0.0069    0.0089    0.0072    0.0246    0.0238   -0.0027    0.0003    0.0074
          57    0.0007   -0.0349   -0.0112   -0.0295   -0.0178   -0.0075    0.0008   -0.0032
          58   -0.0252   -0.0337   -0.0004   -0.0068   -0.0013    0.0259   -0.0087   -0.0159
          59    0.0163   -0.0299   -0.0061   -0.0200   -0.0175   -0.0344    0.0107    0.0156
          60    0.0396    0.0477   -0.0301   -0.0334   -0.0261   -0.0025    0.0092   -0.0021
          61   -0.0086   -0.0143    0.0368    0.0050    0.0063    0.0330    0.0037    0.0123
          62   -0.0007    0.0354    0.0455   -0.0047    0.0094   -0.0027    0.0053   -0.0172
          63   -0.0116   -0.0425   -0.0376   -0.0028   -0.0195    0.0260    0.0183    0.0157
          64    0.0383   -0.0342    0.0219   -0.0021   -0.0016    0.0809    0.0309    0.0470
          65    0.0746    0.0598    0.0560   -0.0091    0.0168   -0.0033    0.0119   -0.0190
          66    0.0062    0.0075   -0.0077    0.0017   -0.0017   -0.0350   -0.0100   -0.0287
          67    0.0448   -0.0233   -0.0055   -0.0033    0.0090    0.0326    0.0007    0.0475
          68   -0.0053    0.0323    0.0411   -0.0048    0.0086   -0.0038    0.0043   -0.0166
          69    0.0626    0.0173    0.0352   -0.0002   -0.0075    0.0206    0.0309   -0.0327
          70   -0.0001   -0.0049    0.0109   -0.0099   -0.0176   -0.0122    0.0356    0.0022
          71   -0.0418    0.0659   -0.0119    0.0410   -0.0545    0.0026   -0.0249    0.0482
          72    0.0273   -0.0517   -0.0240   -0.0290    0.0115    0.0053    0.0021    0.0046
          73   -0.0109   -0.0063   -0.0174    0.0211    0.0056   -0.0135    0.0274   -0.0155
          74    0.0764   -0.0259    0.0219    0.0255   -0.0623    0.0237   -0.0387   -0.0382
          75    0.0788   -0.0012    0.0190    0.0361   -0.0158   -0.0019   -0.0015    0.0056
          76    0.0207    0.0127   -0.0457    0.0063    0.0015    0.0052   -0.0566    0.0230
          77   -0.0390    0.0237    0.0267    0.0437   -0.0592   -0.0047   -0.0126    0.0506
          78   -0.0037   -0.0320    0.0080   -0.0435    0.0102   -0.0055    0.0408   -0.0268
          79   -0.0040    0.0046    0.0101   -0.0035   -0.0219   -0.0139    0.0309    0.0063
          80   -0.0100   -0.0542    0.0369   -0.0484    0.0047   -0.0128    0.0763   -0.0342
          81   -0.0473    0.0196    0.0484    0.0168   -0.0599   -0.0172    0.0523    0.0254
          82    0.0112   -0.0093   -0.0096    0.0303   -0.0062   -0.0119    0.0195   -0.0202
          83   -0.0448   -0.0051   -0.0541    0.0289    0.0429   -0.0291    0.0743   -0.0042
          84   -0.0491    0.0170    0.0167   -0.0759    0.0278    0.0064   -0.0241    0.0375
          85   -0.0041   -0.0068    0.0206   -0.0399   -0.0205    0.0131   -0.0527   -0.0035
          86    0.0311   -0.0157   -0.0013    0.0550   -0.0503    0.0119   -0.0247   -0.0359
          87    0.0286    0.0051    0.0343    0.0091   -0.0386    0.0182   -0.0435   -0.0075


   Root No.      17        18        19        20        21        22        23        24

                17 A      18 A      19 A      20 A      21 A      22 A      23 A      24 A   

                 560.0     627.2     668.5     700.4     825.5     897.4     912.4     928.4
  
           1    0.0087    0.0133    0.0030    0.0292   -0.0016    0.0000   -0.0028   -0.0048
           2   -0.0190    0.0146    0.0205   -0.0040    0.0046   -0.0067   -0.0013    0.0062
           3    0.0057   -0.0143   -0.0025   -0.0170    0.0015    0.0012    0.0053    0.0129
           4   -0.0037   -0.0140   -0.0088   -0.0273    0.0019   -0.0016    0.0121   -0.0051
           5    0.0192   -0.0141    0.0174    0.0009    0.0023   -0.0229   -0.0022   -0.0037
           6    0.0097   -0.0170   -0.0032   -0.0134    0.0006   -0.0026    0.0108   -0.0041
           7   -0.0123    0.0057    0.0014   -0.0030   -0.0141   -0.0125   -0.0101    0.0047
           8    0.0053    0.0234    0.0101    0.0161   -0.0152    0.0112    0.0081    0.0007
           9   -0.0139    0.0029   -0.0176   -0.0134    0.0142   -0.0164   -0.0133   -0.0033
          10    0.0204   -0.0067   -0.0023    0.0075   -0.0024    0.0158   -0.0089    0.0164
          11   -0.0092   -0.0234    0.0025   -0.0230    0.0020    0.0086   -0.0040   -0.0011
          12   -0.0152    0.0000    0.0130   -0.0241    0.0036    0.0195   -0.0137    0.0042
          13    0.0063   -0.0003    0.0041    0.0151    0.0237    0.0017   -0.0001   -0.0024
          14    0.0096    0.0008    0.0022    0.0119    0.0224    0.0006    0.0007   -0.0022
          15    0.0138   -0.0051   -0.0003    0.0191   -0.0138   -0.0009   -0.0020   -0.0067
          16   -0.0125    0.0032   -0.0054   -0.0194    0.0026   -0.0018    0.0173   -0.0089
          17   -0.0013   -0.0013    0.0039   -0.0013    0.0012   -0.0205   -0.0013   -0.0060
          18    0.0070   -0.0035    0.0042    0.0137   -0.0017   -0.0013    0.0013   -0.0008
          19   -0.0039   -0.0014    0.0020    0.0023    0.0072    0.0000    0.0018   -0.0050
          20    0.0041    0.0000   -0.0008    0.0001    0.0051    0.0039    0.0006    0.0026
          21   -0.0036    0.0004    0.0016    0.0015   -0.0020   -0.0002   -0.0024   -0.0077
          22    0.0123   -0.0200    0.0063   -0.0002    0.0031   -0.0018   -0.0023    0.0012
          23    0.0061    0.0362   -0.0371   -0.0056   -0.0026    0.0094    0.0124   -0.0059
          24   -0.0148    0.0116    0.0136    0.0095   -0.0078    0.0020   -0.0033    0.0044
          25   -0.0103    0.0206    0.0088   -0.0016   -0.0003   -0.0010    0.0008    0.0061
          26   -0.0114   -0.0353   -0.0302    0.0120    0.0007    0.0082   -0.0070   -0.0201
          27   -0.0147    0.0084   -0.0106    0.0171   -0.0017   -0.0034   -0.0011   -0.0176
          28    0.0049    0.0003   -0.0021    0.0008    0.0009   -0.0004    0.0001   -0.0019
          29    0.0011    0.0036   -0.0030    0.0019   -0.0034    0.0059    0.0041    0.0002
          30    0.0071    0.0062   -0.0065    0.0010   -0.0051    0.0074    0.0041    0.0043
          31   -0.0065   -0.0003   -0.0015   -0.0006    0.0004   -0.0029    0.0028   -0.0022
          32   -0.0040   -0.0037   -0.0038   -0.0019    0.0007    0.0109   -0.0071    0.0003
          33    0.0092    0.0052    0.0049    0.0005   -0.0008   -0.0121    0.0082   -0.0097
          34    0.0260    0.0141    0.0031    0.0564   -0.0342   -0.0001    0.0055    0.0027
          35   -0.0435    0.0281    0.0485   -0.0183   -0.0099   -0.0166   -0.0042    0.0261
          36    0.0141   -0.0131   -0.0009   -0.0006   -0.0175    0.0006    0.0100    0.0173
          37   -0.0155   -0.0164   -0.0141   -0.0504    0.0089    0.0004   -0.0220    0.0100
          38    0.0419   -0.0284    0.0389    0.0006    0.0069   -0.0070   -0.0053    0.0183
          39    0.0172   -0.0161    0.0015    0.0013   -0.0033   -0.0030    0.0291   -0.0109
          40   -0.0336    0.0260   -0.0002   -0.0073   -0.0452   -0.0284   -0.0314    0.0088
          41   -0.0092    0.0295    0.0430    0.0416   -0.0254   -0.0021   -0.0155    0.0017
          42   -0.0234    0.0075    0.0045    0.0037    0.0067   -0.0241   -0.0285   -0.0025
          43    0.0466   -0.0293   -0.0092    0.0202   -0.0064    0.0341   -0.0300    0.0246
          44    0.0085   -0.0317    0.0226   -0.0607    0.0040   -0.0076    0.0178    0.0322
          45   -0.0241    0.0048    0.0021   -0.0034    0.0025    0.0272   -0.0250   -0.0136
          46    0.0175   -0.0228   -0.0047   -0.0036   -0.0280    0.0065    0.0094    0.0150
          47    0.0259   -0.0225   -0.0117   -0.0094   -0.1514   -0.0129   -0.0117   -0.0179
          48    0.0212   -0.0199   -0.0066    0.0058   -0.0595    0.0006    0.0019    0.0022
          49    0.0076   -0.0036    0.0076    0.0113   -0.0586   -0.0174   -0.0137   -0.0086
          50    0.0109   -0.0006   -0.0014    0.0107    0.0494    0.0105    0.0077    0.0015
          51   -0.0102    0.0318    0.0229    0.0531    0.1538   -0.0021   -0.0037   -0.0061
          52   -0.0166    0.0016    0.0044   -0.0165    0.0416    0.0026    0.0132    0.0268
          53    0.0085   -0.0069   -0.0066   -0.0035   -0.1139   -0.0143   -0.0215   -0.0251
          54   -0.0120    0.0017    0.0026   -0.0119    0.0088   -0.0004    0.0029    0.0113
          55   -0.0196   -0.0028   -0.0017   -0.0307   -0.1067   -0.0237   -0.0118    0.0038
          56    0.0122    0.0003    0.0008    0.0163    0.0556    0.0148    0.0063   -0.0032
          57   -0.0116    0.0055    0.0045   -0.0063    0.0377    0.0038    0.0068    0.0148
          58    0.0093   -0.0047    0.0000    0.0224   -0.0248   -0.0029   -0.0085   -0.0371
          59   -0.0185    0.0044   -0.0007   -0.0391   -0.0360   -0.0078    0.0022    0.0411
          60   -0.0156    0.0033    0.0034   -0.0169    0.0221    0.0014    0.0061    0.0206
          61   -0.0283    0.0147   -0.0160   -0.0236   -0.0033    0.0658    0.0231    0.0087
          62   -0.0131    0.0068   -0.0043   -0.0050   -0.0037    0.0324    0.0060    0.0068
          63    0.0177    0.0006    0.0223    0.0384    0.0069   -0.0724   -0.0701    0.0078
          64   -0.0241    0.0288    0.0027    0.0056    0.0050    0.0065   -0.0703    0.0303
          65   -0.0129    0.0078   -0.0021   -0.0023   -0.0039    0.0338   -0.0006    0.0106
          66    0.0120   -0.0161   -0.0003    0.0006   -0.0031   -0.0023    0.0461   -0.0201
          67    0.0015   -0.0079    0.0038   -0.0205    0.0096   -0.0697    0.0157   -0.0291
          68   -0.0102    0.0048   -0.0026   -0.0025   -0.0035    0.0242    0.0044    0.0055
          69   -0.0192    0.0284   -0.0006    0.0342   -0.0090    0.0883   -0.0611    0.0521
          70    0.0165   -0.0160    0.0024    0.0001    0.0065    0.0074    0.0123   -0.0074
          71   -0.0228    0.0169   -0.0048    0.0020    0.0142   -0.0449   -0.0788    0.0279
          72    0.0151    0.0325   -0.0161    0.0054   -0.0086    0.0601    0.0919   -0.0391
          73   -0.0197    0.0153    0.0044   -0.0011    0.0015   -0.0047   -0.0025   -0.0380
          74    0.0180   -0.0185   -0.0078   -0.0013   -0.0007   -0.0542    0.0610    0.1193
          75    0.0263    0.0293    0.0124    0.0083   -0.0068   -0.0291    0.0455    0.1713
          76   -0.0182    0.0697   -0.0357    0.0023   -0.0361    0.0326    0.0195    0.0194
          77   -0.0607   -0.0648    0.1384    0.0508   -0.0282    0.0309    0.0283    0.0084
          78    0.0574    0.0653   -0.1243   -0.0389    0.0139   -0.0112   -0.0144   -0.0018
          79    0.0122   -0.0258    0.0131    0.0020    0.0125   -0.0074   -0.0002   -0.0121
          80    0.0628    0.0109   -0.0789   -0.0325    0.0330   -0.0507   -0.0648    0.0150
          81   -0.0074   -0.0755    0.0825    0.0243    0.0089    0.0188    0.0431   -0.0351
          82   -0.0081    0.0292    0.0187   -0.0087   -0.0001   -0.0271    0.0171   -0.0371
          83   -0.0707   -0.0026   -0.0487    0.0529   -0.0045   -0.0710    0.0628    0.0718
          84   -0.0223   -0.0736   -0.0732    0.0510   -0.0027    0.0112    0.0058    0.1228
          85    0.0055   -0.0735   -0.0448    0.0091    0.0030    0.0794   -0.0533    0.0423
          86    0.0664    0.0559    0.0951   -0.0853    0.0058    0.0389   -0.0309    0.0061
          87    0.0795    0.0663    0.1044   -0.0825    0.0041    0.0136   -0.0141   -0.0045


   Root No.      25        26        27        28        29        30        31        32

                25 A      26 A      27 A      28 A      29 A      30 A      31 A      32 A   

                 935.0     944.6     966.3     976.3     999.0    1024.0    1026.1    1047.5
  
           1    0.0060    0.0026    0.0066    0.0059    0.0024   -0.0073    0.0079   -0.0271
           2    0.0138    0.0108    0.0123    0.0055    0.0138    0.0056   -0.0058    0.0278
           3   -0.0114   -0.0033    0.0216   -0.0011    0.0028    0.0006   -0.0006    0.0000
           4    0.0052   -0.0040   -0.0005    0.0000    0.0022   -0.0006    0.0032   -0.0102
           5   -0.0112   -0.0008   -0.0030   -0.0005   -0.0010   -0.0049   -0.0019   -0.0122
           6    0.0036   -0.0025   -0.0031   -0.0024   -0.0002    0.0059    0.0021    0.0036
           7   -0.0265   -0.0010   -0.0007   -0.0049   -0.0117   -0.0043   -0.0018   -0.0174
           8    0.0053   -0.0052    0.0085   -0.0033   -0.0175    0.0019    0.0011   -0.0092
           9    0.0060    0.0205    0.0026   -0.0008   -0.0010   -0.0019    0.0009   -0.0052
          10    0.0032    0.0067    0.0153   -0.0061    0.0078    0.0034   -0.0057    0.0218
          11    0.0024    0.0011   -0.0075   -0.0194   -0.0008   -0.0047    0.0020   -0.0073
          12   -0.0009    0.0025   -0.0151    0.0073   -0.0041   -0.0026    0.0014   -0.0161
          13    0.0031    0.0014   -0.0034    0.0027    0.0121   -0.0017    0.0027   -0.0039
          14    0.0022    0.0013   -0.0027    0.0014    0.0109   -0.0003    0.0018   -0.0006
          15    0.0043   -0.0002   -0.0063   -0.0021   -0.0047   -0.0016    0.0014    0.0056
          16    0.0107   -0.0102   -0.0008    0.0130   -0.0046    0.0003   -0.0024    0.0071
          17   -0.0143    0.0038   -0.0025    0.0144   -0.0014    0.0047    0.0025    0.0066
          18   -0.0006   -0.0049    0.0042    0.0072    0.0006   -0.0069   -0.0015   -0.0069
          19    0.0008   -0.0032   -0.0166   -0.0045   -0.0108    0.0050   -0.0053    0.0085
          20   -0.0039   -0.0029    0.0023   -0.0010   -0.0062   -0.0005   -0.0002    0.0004
          21    0.0072    0.0024   -0.0243    0.0007    0.0010    0.0051   -0.0050    0.0043
          22   -0.0036   -0.0056   -0.0035   -0.0009    0.0088   -0.0058   -0.0038    0.0011
          23   -0.0053    0.0161   -0.0011    0.0013   -0.0038    0.0154    0.0140   -0.0046
          24    0.0055   -0.0157    0.0013    0.0010   -0.0062   -0.0045   -0.0066    0.0040
          25    0.0003    0.0017   -0.0006    0.0110   -0.0023    0.0060   -0.0064   -0.0007
          26   -0.0034   -0.0041    0.0047   -0.0048    0.0012   -0.0122    0.0159    0.0078
          27   -0.0020   -0.0023    0.0097    0.0032   -0.0007   -0.0044    0.0075    0.0106
          28    0.0062    0.0033    0.0019    0.0001   -0.0068    0.0048    0.0037   -0.0022
          29   -0.0105   -0.0040   -0.0074    0.0013    0.0085   -0.0267   -0.0239    0.0076
          30   -0.0120   -0.0201   -0.0086    0.0000    0.0156    0.0180    0.0168    0.0018
          31    0.0018   -0.0006   -0.0022   -0.0082    0.0009   -0.0053    0.0064    0.0033
          32   -0.0035   -0.0001    0.0031    0.0155    0.0003    0.0210   -0.0251   -0.0108
          33    0.0018   -0.0025    0.0084   -0.0240    0.0074    0.0154   -0.0214   -0.0053
          34   -0.0074   -0.0160    0.0562   -0.0069   -0.0311   -0.0156    0.0181   -0.0246
          35    0.0154    0.0023   -0.0016    0.0345    0.0093    0.0169   -0.0255    0.1000
          36   -0.0185   -0.0142    0.0495   -0.0070   -0.0168   -0.0043    0.0049    0.0049
          37   -0.0088    0.0331   -0.0166   -0.0348    0.0054    0.0058    0.0140   -0.0336
          38    0.0046   -0.0231   -0.0154   -0.0076    0.0196   -0.0103   -0.0116   -0.0397
          39    0.0117   -0.0248    0.0058    0.0173   -0.0009    0.0012   -0.0049    0.0152
          40   -0.0514    0.0266   -0.0152   -0.0234   -0.0781    0.0465   -0.0036    0.0611
          41    0.0376   -0.0112    0.0211    0.0018   -0.0596   -0.0434   -0.0380   -0.0371
[...]

 VIBRATION   61   61A       ATOM PAIR        ENERGY CONTRIBUTION    RADIAL
 FREQ.      1484.74        C  3 --  C  4           +8.9% ( 52.0%)    99.9%
 T-DIPOLE    0.1040        C  2 --  C  4           +8.4% ( 50.5%)    54.9%
 TRAVEL      0.0657        C  2 --  C  3           +8.3% ( 50.1%)    54.9%
 RED. MASS   1.5442        C  1 --  C  4           +7.7% ( 48.3%)    56.3%
 EFF. MASS  10.5158

 VIBRATION   62   62A       ATOM PAIR        ENERGY CONTRIBUTION    RADIAL
 FREQ.      1860.87        C  9 --  C 11          +38.2% ( 91.4%)    98.8%
 T-DIPOLE    0.3033        C  4 --  C  9          +14.5% ( 56.3%)    56.8%
 TRAVEL      0.0554        C  9 --  H 25          +13.1% ( 53.6%)     3.7%
 RED. MASS   3.9585        C 11 --  H 28           +9.2% ( 44.8%)    10.6%
 EFF. MASS  11.8214

 VIBRATION   63   63A       ATOM PAIR        ENERGY CONTRIBUTION    RADIAL
 FREQ.      1862.56        C  8 --  C 10          +38.0% ( 91.3%)    98.7%
 T-DIPOLE    0.2408        C  3 --  C  8          +14.6% ( 56.5%)    58.5%
 TRAVEL      0.0553        C  8 --  H 24          +13.1% ( 53.7%)     3.7%
 RED. MASS   3.9440        C 10 --  H 27           +9.1% ( 44.6%)    10.7%
 EFF. MASS  11.8240

 VIBRATION   64   64A       ATOM PAIR        ENERGY CONTRIBUTION    RADIAL
 FREQ.      2916.86        C  3 --  H 14          +84.5% ( 94.0%)   100.0%
 T-DIPOLE    0.1022        C  1 --  H 12           +5.7% ( 24.5%)   100.0%
 TRAVEL      0.1263        C  2 --  H 13           +3.5% ( 19.2%)    99.9%
 RED. MASS   0.7303        C  4 --  H 15           +1.8% ( 13.7%)   100.0%
 EFF. MASS   1.4489

 VIBRATION   65   65A       ATOM PAIR        ENERGY CONTRIBUTION    RADIAL
 FREQ.      2919.69        C  4 --  H 15          +85.0% ( 94.2%)   100.0%
 T-DIPOLE    0.0812        C  3 --  H 14           +4.7% ( 22.1%)   100.0%
 TRAVEL      0.1268        C  1 --  H 12           +3.9% ( 20.1%)    99.9%
 RED. MASS   0.7349        C  2 --  H 13           +2.2% ( 15.1%)    99.8%
 EFF. MASS   1.4370

 VIBRATION   66   66A       ATOM PAIR        ENERGY CONTRIBUTION    RADIAL
 FREQ.      2931.91        C  1 --  H 12          +66.4% ( 83.3%)   100.0%
 T-DIPOLE    0.1158        C  2 --  H 13          +21.2% ( 47.1%)   100.0%
 TRAVEL      0.1263        C  5 --  H 16           +2.9% ( 17.6%)    96.5%
 RED. MASS   0.4950        C  5 --  H 17           +2.4% ( 16.0%)    95.6%
 EFF. MASS   1.4406

 VIBRATION   67   67A       ATOM PAIR        ENERGY CONTRIBUTION    RADIAL
 FREQ.      2938.04        C  2 --  H 13          +68.6% ( 84.5%)   100.0%
 T-DIPOLE    0.1834        C  1 --  H 12          +12.2% ( 35.7%)   100.0%
 TRAVEL      0.1258        C  4 --  H 15           +7.1% ( 27.2%)    99.9%
 RED. MASS   0.5001        C  3 --  H 14           +5.1% ( 23.1%)    99.9%
 EFF. MASS   1.4491

 VIBRATION   68   68A       ATOM PAIR        ENERGY CONTRIBUTION    RADIAL
 FREQ.      2949.05        C  5 --  H 16          +46.7% ( 70.8%)    96.8%
 T-DIPOLE    0.0465        C  5 --  H 17          +43.0% ( 68.0%)    96.3%
 TRAVEL      0.1221        C  1 --  H 12           +7.2% ( 27.8%)   100.0%
 RED. MASS   0.4406        C  5 --  C  7           +1.1% ( 10.8%)     0.0%
 EFF. MASS   1.5330

 VIBRATION   69   69A       ATOM PAIR        ENERGY CONTRIBUTION    RADIAL
 FREQ.      3026.13        C  5 --  H 17          +51.5% ( 70.7%)    97.9%
 T-DIPOLE    0.0262        C  5 --  H 16          +46.7% ( 67.3%)    97.4%
 TRAVEL      0.1322        C  5 --  C  7           +0.6% (  7.8%)    26.7%
 RED. MASS   0.4799        C  1 --  C  5           +0.6% (  7.7%)    29.2%
 EFF. MASS   1.2755

 VIBRATION   70   70A       ATOM PAIR        ENERGY CONTRIBUTION    RADIAL
 FREQ.      3034.38        C  8 --  H 24          +96.4% ( 99.6%)   100.0%
 T-DIPOLE    0.2379        C  8 --  C 10           +1.4% ( 12.2%)    31.3%
 TRAVEL      0.1215        C  3 --  C  8           +1.4% ( 11.9%)    13.6%
 RED. MASS   0.9152        C 10 --  H 26           +0.8% (  8.9%)    94.4%
 EFF. MASS   1.5063

 VIBRATION   71   71A       ATOM PAIR        ENERGY CONTRIBUTION    RADIAL
 FREQ.      3038.19        C  9 --  H 25          +96.4% ( 99.6%)   100.0%
 T-DIPOLE    0.2405        C  9 --  C 11           +1.4% ( 12.2%)    30.9%
 TRAVEL      0.1214        C  4 --  C  9           +1.4% ( 11.8%)    14.1%
 RED. MASS   0.9144        C 11 --  H 29           +0.8% (  9.2%)    94.9%
 EFF. MASS   1.5055

 VIBRATION   72   72A       ATOM PAIR        ENERGY CONTRIBUTION    RADIAL
 FREQ.      3073.84        C  6 --  H 22          +67.4% ( 84.7%)    99.0%
 T-DIPOLE    0.0124        C  6 --  H 23          +20.6% ( 46.8%)    88.0%
 TRAVEL      0.1207        C  6 --  H 21          +10.9% ( 34.0%)    76.0%
 RED. MASS   0.5363        C  2 --  C  6           +1.0% ( 10.4%)     0.0%
 EFF. MASS   1.5048

 VIBRATION   73   73A       ATOM PAIR        ENERGY CONTRIBUTION    RADIAL
 FREQ.      3075.57        C  7 --  H 19          +57.3% ( 78.1%)    98.0%
 T-DIPOLE    0.0123        C  7 --  H 18          +39.7% ( 65.0%)    95.5%
 TRAVEL      0.1208        C  7 --  H 20           +1.6% ( 13.2%)    16.9%
 RED. MASS   0.5147        C  5 --  C  7           +1.0% ( 10.2%)     0.0%
 EFF. MASS   1.5014

 VIBRATION   74   74A       ATOM PAIR        ENERGY CONTRIBUTION    RADIAL
 FREQ.      3082.65        C  6 --  H 21          +52.1% ( 74.4%)    97.6%
 T-DIPOLE    0.0199        C  6 --  H 23          +45.2% ( 69.4%)    96.3%
 TRAVEL      0.1204        C  6 --  H 22           +1.7% ( 13.4%)    16.2%
 RED. MASS   0.5055        C  2 --  C  6           +1.0% ( 10.4%)     0.0%
 EFF. MASS   1.5084

 VIBRATION   75   75A       ATOM PAIR        ENERGY CONTRIBUTION    RADIAL
 FREQ.      3084.86        C  7 --  H 20          +60.1% ( 79.9%)    98.6%
 T-DIPOLE    0.0034        C  7 --  H 18          +26.5% ( 53.1%)    90.9%
 TRAVEL      0.1206        C  7 --  H 19          +12.0% ( 35.7%)    77.6%
 RED. MASS   0.4743        C  5 --  C  7           +1.0% ( 10.4%)     0.0%
 EFF. MASS   1.5041

 VIBRATION   76   76A       ATOM PAIR        ENERGY CONTRIBUTION    RADIAL
 FREQ.      3130.48        C 11 --  H 28          +96.6% ( 99.7%)   100.0%
 T-DIPOLE    0.2093        C 11 --  H 29           +1.9% ( 14.1%)    36.1%
 TRAVEL      0.1195        C  9 --  C 11           +1.4% ( 11.9%)    35.2%
 RED. MASS   0.9211
 EFF. MASS   1.5088

 VIBRATION   77   77A       ATOM PAIR        ENERGY CONTRIBUTION    RADIAL
 FREQ.      3131.02        C 10 --  H 27          +96.1% ( 99.5%)   100.0%
 T-DIPOLE    0.2063        C 10 --  H 26           +2.5% ( 16.0%)    44.5%
 TRAVEL      0.1193        C  8 --  C 10           +1.4% ( 11.8%)    32.9%
 RED. MASS   0.9133
 EFF. MASS   1.5143

 VIBRATION   78   78A       ATOM PAIR        ENERGY CONTRIBUTION    RADIAL
 FREQ.      3148.22        C 10 --  H 26          +90.7% ( 96.2%)    99.9%
 T-DIPOLE    0.2575        C 11 --  H 29           +5.1% ( 22.7%)    99.9%
 TRAVEL      0.1199        C 10 --  H 27           +1.9% ( 13.9%)     2.9%
 RED. MASS   0.8034        C  8 --  C 10           +1.5% ( 12.2%)    60.1%
 EFF. MASS   1.4890

 VIBRATION   79   79A       ATOM PAIR        ENERGY CONTRIBUTION    RADIAL
 FREQ.      3148.42        C 11 --  H 29          +91.1% ( 96.4%)    99.9%
 T-DIPOLE    0.2442        C 10 --  H 26           +5.0% ( 22.6%)    99.9%
 TRAVEL      0.1197        C 11 --  H 28           +1.5% ( 12.4%)     0.1%
 RED. MASS   0.8108        C  9 --  C 11           +1.5% ( 12.2%)    57.8%
 EFF. MASS   1.4945

 VIBRATION   80   80A       ATOM PAIR        ENERGY CONTRIBUTION    RADIAL
 FREQ.      3174.23        C  6 --  H 21          +36.7% ( 58.3%)    97.6%
 T-DIPOLE    0.0276        C  6 --  H 23          +33.4% ( 55.7%)    97.1%
 TRAVEL      0.1367        C  6 --  H 22          +29.5% ( 52.3%)    96.4%
 RED. MASS   0.3289        C  2 --  C  6           +0.3% (  5.2%)    99.3%
 EFF. MASS   1.1370

 VIBRATION   81   81A       ATOM PAIR        ENERGY CONTRIBUTION    RADIAL
 FREQ.      3178.95        C  7 --  H 20          +37.8% ( 59.2%)    97.7%
 T-DIPOLE    0.0162        C  7 --  H 18          +32.8% ( 55.1%)    97.0%
 TRAVEL      0.1366        C  7 --  H 19          +29.1% ( 51.9%)    96.3%
 RED. MASS   0.3301        C  5 --  C  7           +0.3% (  5.1%)    99.1%
 EFF. MASS   1.1370

 SYMMETRY NUMBER FOR POINT-GROUP C1  =  1


          SYSTEM IS A GROUND STATE


    NULL



          MOLECULE IS NOT LINEAR

          THERE ARE 81 GENUINE VIBRATIONS IN THIS SYSTEM
          THIS THERMODYNAMICS CALCULATION IS LIMITED TO
          MOLECULES WHICH HAVE NO INTERNAL ROTATIONS




                    CALCULATED THERMODYNAMIC PROPERTIES
                                          *
   TEMP. (K)   PARTITION FUNCTION   H.O.F.    ENTHALPY  HEAT CAPACITY ENTROPY
                                   KCAL/MOL   CAL/MOLE    CAL/K/MOL  CAL/K/MOL


 298.00  VIB.     0.8727D+04                  6175.1806    41.7452    38.7543
         ROT.     0.1064D+07                   888.2813     2.9808    30.5591
         INT.     0.9289D+10                  7063.4619    44.7260    69.3134
         TRA.     0.1781D+28                  1480.4688     4.9680    40.9296
         TOT.                       15.116    8543.9307    49.6940   110.2430

 200.00  VIB.     0.2807D+03                  2807.4743    27.4525    25.2396
         ROT.     0.5852D+06                   596.1620     2.9808    29.3705
         INT.     0.1643D+09                  3403.6362    30.4333    54.6100
         TRA.     0.9791D+27                   993.6033     4.9680    38.9485
         TOT.                       10.970    4397.2395    35.4013    93.5585

 210.00  VIB.     0.3994D+03                  3088.5522    28.7689    26.6107
         ROT.     0.6297D+06                   625.9700     2.9808    29.5159
         INT.     0.2515D+09                  3714.5223    31.7498    56.1266
         TRA.     0.1053D+28                  1043.2834     4.9680    39.1909
         TOT.                       11.330    4757.8057    36.7178    95.3175

 220.00  VIB.     0.5680D+03                  3382.9727    30.1212    27.9801
         ROT.     0.6752D+06                   655.7781     2.9808    29.6546
         INT.     0.3835D+09                  4038.7509    33.1020    57.6347
         TRA.     0.1130D+28                  1092.9636     4.9680    39.4220
         TOT.                       11.704    5131.7144    38.0700    97.0566

 230.00  VIB.     0.8071D+03                  3691.0974    31.5097    29.3495
         ROT.     0.7217D+06                   685.5862     2.9808    29.7871
         INT.     0.5825D+09                  4376.6836    34.4906    59.1366
         TRA.     0.1207D+28                  1142.6437     4.9680    39.6428
         TOT.                       12.092    5519.3274    39.4586    98.7794

 240.00  VIB.     0.1146D+04                  4013.2856    32.9337    30.7205
         ROT.     0.7693D+06                   715.3943     2.9808    29.9139
         INT.     0.8819D+09                  4728.6799    35.9145    60.6345
         TRA.     0.1287D+28                  1192.3239     4.9680    39.8543
         TOT.                       12.494    5921.0038    40.8825   100.4887

 250.00  VIB.     0.1627D+04                  4349.8821    34.3910    32.0944
         ROT.     0.8179D+06                   745.2024     2.9808    30.0356
         INT.     0.1331D+10                  5095.0845    37.3718    62.1300
         TRA.     0.1368D+28                  1242.0041     4.9680    40.0571
         TOT.                       12.910    6337.0886    42.3398   102.1871

 260.00  VIB.     0.2310D+04                  4701.2073    35.8789    33.4721
         ROT.     0.8675D+06                   775.0105     2.9808    30.1525
         INT.     0.2003D+10                  5476.2178    38.8597    63.6246
         TRA.     0.1451D+28                  1291.6842     4.9680    40.2519
         TOT.                       13.340    6767.9020    43.8277   103.8766

 270.00  VIB.     0.3277D+04                  5067.5496    37.3938    34.8545
         ROT.     0.9180D+06                   804.8186     2.9808    30.2650
         INT.     0.3008D+10                  5872.3682    40.3746    65.1195
         TRA.     0.1536D+28                  1341.3644     4.9680    40.4394
         TOT.                       13.786    7213.7326    45.3426   105.5590

 280.00  VIB.     0.4649D+04                  5449.1603    38.9319    36.2422
         ROT.     0.9694D+06                   834.6267     2.9808    30.3734
         INT.     0.4507D+10                  6283.7871    41.9127    66.6156
         TRA.     0.1622D+28                  1391.0445     4.9680    40.6201
         TOT.                       14.247    7674.8316    46.8807   107.2357

 290.00  VIB.     0.6596D+04                  5846.2499    40.4889    37.6355
         ROT.     0.1022D+07                   864.4348     2.9808    30.4780
         INT.     0.6740D+10                  6710.6847    43.4697    68.1135
         TRA.     0.1710D+28                  1440.7247     4.9680    40.7944
         TOT.                       14.724    8151.4094    48.4377   108.9079

 300.00  VIB.     0.9359D+04                  6258.9862    42.0605    39.0346
         ROT.     0.1075D+07                   894.2429     2.9808    30.5791
         INT.     0.1006D+11                  7153.2291    45.0413    69.6136
         TRA.     0.1799D+28                  1490.4049     4.9680    40.9628
         TOT.                       15.216    8643.6340    50.0093   110.5765

 310.00  VIB.     0.1328D+05                  6687.4941    43.6425    40.4395
         ROT.     0.1129D+07                   924.0510     2.9808    30.6768
         INT.     0.1500D+11                  7611.5451    46.6233    71.1163
         TRA.     0.1889D+28                  1540.0850     4.9680    41.1257
         TOT.                       15.724    9151.6302    51.5913   112.2421

 320.00  VIB.     0.1885D+05                  7131.8563    45.2307    41.8502
         ROT.     0.1184D+07                   953.8591     2.9808    30.7714
         INT.     0.2233D+11                  8085.7154    48.2115    72.6216
         TRA.     0.1982D+28                  1589.7652     4.9680    41.2835
         TOT.                       16.248    9675.4806    53.1795   113.9051

 330.00  VIB.     0.2677D+05                  7592.1146    46.8211    43.2663
         ROT.     0.1240D+07                   983.6672     2.9808    30.8632
         INT.     0.3321D+11                  8575.7818    49.8019    74.1295
         TRA.     0.2075D+28                  1639.4454     4.9680    41.4364
         TOT.                       16.788   10215.2272    54.7699   115.5658

 340.00  VIB.     0.3803D+05                  8068.2725    48.4100    44.6877
         ROT.     0.1297D+07                  1013.4753     2.9808    30.9522
         INT.     0.4934D+11                  9081.7478    51.3908    75.6398
         TRA.     0.2170D+28                  1689.1255     4.9680    41.5847
         TOT.                       17.343   10770.8733    56.3588   117.2245

 350.00  VIB.     0.5405D+05                  8560.2975    49.9939    46.1138
         ROT.     0.1355D+07                  1043.2834     2.9808    31.0386
         INT.     0.7323D+11                  9603.5809    52.9748    77.1524
         TRA.     0.2267D+28                  1738.8057     4.9680    41.7287
         TOT.                       17.915   11342.3866    57.9428   118.8811

 360.00  VIB.     0.7684D+05                  9068.1244    51.5699    47.5443
         ROT.     0.1413D+07                  1073.0915     2.9808    31.1225
         INT.     0.1086D+12                 10141.2159    54.5507    78.6668
         TRA.     0.2364D+28                  1788.4859     4.9680    41.8686
         TOT.                       18.502   11929.7018    59.5187   120.5355

 370.00  VIB.     0.1093D+06                  9591.6583    53.1349    48.9786
         ROT.     0.1473D+07                  1102.8996     2.9808    31.2042
         INT.     0.1610D+12                 10694.5579    56.1157    80.1828
         TRA.     0.2464D+28                  1838.1660     4.9680    42.0047
         TOT.                       19.105   12532.7239    61.0837   122.1876

 380.00  VIB.     0.1555D+06                 10130.7777    54.6866    50.4163
         ROT.     0.1533D+07                  1132.7077     2.9808    31.2837
         INT.     0.2384D+12                 11263.4854    57.6674    81.7000
         TRA.     0.2564D+28                  1887.8462     4.9680    42.1372
         TOT.                       19.724   13151.3315    62.6354   123.8372

 390.00  VIB.     0.2214D+06                 10685.3378    56.2227    51.8567
         ROT.     0.1594D+07                  1162.5158     2.9808    31.3611
         INT.     0.3529D+12                 11847.8536    59.2035    83.2178
         TRA.     0.2666D+28                  1937.5263     4.9680    42.2663
         TOT.                       20.358   13785.3799    64.1715   125.4841

 400.00  VIB.     0.3154D+06                 11255.1737    57.7414    53.2993
         ROT.     0.1655D+07                  1192.3239     2.9808    31.4366
         INT.     0.5221D+12                 12447.4976    60.7222    84.7359
         TRA.     0.2769D+28                  1987.2065     4.9680    42.3921
         TOT.                       21.007   14434.7041    65.6903   127.1280

   *: NOTE: HEATS OF FORMATION ARE RELATIVE TO THE
            ELEMENTS IN THEIR STANDARD STATE AT 298K
              (=  Standard Enthalpy of Formation).

            Hvib:  Zero-point energy is not included.
                   frequencies of less than zero cm-1 are not included.
            Hrot = (3/2)RT
            Htra = (3/2)RT + pV = (5/2)RT

            Heat capacity is Cp, not Cv

           For more information, see: HTTP://OpenMOPAC.net/Manual/thermochemistry.html


           FORCE CONSTANT IN CARTESIAN COORDINATES (Millidynes/A)

    ATOM   CHEMICAL       X               Y               Z
   NUMBER   SYMBOL  FORCE CONSTANT  FORCE CONSTANT  FORCE CONSTANT

      1       C        9.578102        6.251261        8.689027
      2       C        9.576550        6.180021        8.866337
      3       C        6.321044        9.798530        8.969589
      4       C        6.331431        9.917040        8.867751
      5       C        8.372250        8.418734        8.302235
      6       C        8.444193        8.354736        8.338604
      7       C        8.362433        8.202484        8.323438
      8       C       13.330082        6.378602        7.607374
      9       C       13.281381        7.432977        6.609080
     10       C       13.126599        5.983410        7.372196
     11       C       13.063378        7.076762        6.338586
     12       H        1.822171        0.713776        3.704137
     13       H        1.821532        0.716271        3.702581
     14       H        0.671643        1.990675        3.435545
     15       H        0.672152        1.639370        3.796870
     16       H        1.810167        0.775584        3.801676
     17       H        1.669352        3.993207        0.694574
     18       H        2.088180        0.788633        3.902381
     19       H        1.714499        4.349338        0.681332
     20       H        2.470582        0.699117        3.623390
     21       H        2.225518        3.826232        0.697737
     22       H        1.851110        0.687746        4.216487
     23       H        2.269260        3.731565        0.732050
     24       H        4.318854        0.745544        1.120113
     25       H        4.250816        0.788007        1.165047
     26       H        0.702889        2.394800        3.388063
     27       H        4.711485        0.676832        1.053461
     28       H        4.617891        0.708627        1.110556
     29       H        0.693195        2.871156        2.919837



 TOTAL CPU TIME:             6.60 SECONDS

 == MOPAC DONE ==
