 *******************************************************************************
 ** Site#: 14399           For non-commercial use only        Version 13.159M **
 *******************************************************************************
 ** Cite this work as: MOPAC2012, James J. P. Stewart, Stewart Computational  **
 ** Chemistry, Version 13.159M web: HTTP://OpenMOPAC.net  Days remaining:   6 **
 *******************************************************************************
 **                                                                           **
 **                                MOPAC2012                                  **
 **                                                                           **
 *******************************************************************************

                            PM3 CALCULATION RESULTS


 *******************************************************************************
 *  CALCULATION DONE:                                Mon Jun  2 11:13:42 2014  *
 *  PM3      - The PM3 Hamiltonian to be used
 *  PRECISE  - CRITERIA TO BE INCREASED BY 100 TIMES
 *  NOSYM    - POINT-GROUP SYMMETRY SET TO C1
 *  T=       - A TIME OF 172800.0 SECONDS REQUESTED
 *  DUMP=N   - RESTART FILE WRITTEN EVERY  7200.000 SECONDS
 *******************************************************************************
pm3  precise nosym
 InChI=1S/C10H14/c1-3-6-9(2)10-7-4-5-8-10/h4-5,7-8,10H,2-3,6H2,1H3

   ATOM   CHEMICAL          X               Y               Z
  NUMBER   SYMBOL      (ANGSTROMS)     (ANGSTROMS)     (ANGSTROMS)
 
     1       C         -1.60020000  *  -0.72710000  *   0.02290000  *
     2       C          1.94110000  *  -0.05360000  *  -0.50550000  *
     3       C          0.88010000  *  -0.04000000  *   0.59920000  *
     4       C          2.98810000  *   1.03850000  *  -0.31690000  *
     5       C         -0.18030000  *  -1.10150000  *   0.39510000  *
     6       C         -1.66790000  *   0.14310000  *  -1.19400000  *
     7       C         -2.24140000  *   0.17240000  *   1.03390000  *
     8       C         -2.23200000  *   1.30660000  *  -0.91550000  *
     9       C         -2.59420000  *   1.32480000  *   0.48860000  *
    10       C          0.13910000  *  -2.39320000  *   0.57210000  *
    11       H         -2.25960000  *  -1.61310000  *  -0.13410000  *
    12       H          2.46380000  *  -1.03770000  *  -0.52770000  *
    13       H          1.45210000  *   0.09150000  *  -1.49700000  *
    14       H          1.35460000  *  -0.17920000  *   1.59880000  *
    15       H          0.41750000  *   0.97350000  *   0.62530000  *
    16       H          3.52560000  *   0.90910000  *   0.65020000  *
    17       H          2.51770000  *   2.04800000  *  -0.33910000  *
    18       H          3.73790000  *   0.98950000  *  -1.13890000  *
    19       H         -1.31030000  *  -0.13720000  *  -2.17970000  *
    20       H         -2.40710000  *  -0.08140000  *   2.07610000  *
    21       H         -2.39790000  *   2.10790000  *  -1.62780000  *
    22       H         -3.07920000  *   2.14210000  *   1.01180000  *
    23       H          1.14630000  *  -2.69410000  *   0.85680000  *
    24       H         -0.59360000  *  -3.18870000  *   0.44560000  *
 


          CARTESIAN COORDINATES 

    NO.       ATOM         X         Y         Z

     1         C       -1.6002   -0.7271    0.0229
     2         C        1.9411   -0.0536   -0.5055
     3         C        0.8801   -0.0400    0.5992
     4         C        2.9881    1.0385   -0.3169
     5         C       -0.1803   -1.1015    0.3951
     6         C       -1.6679    0.1431   -1.1940
     7         C       -2.2414    0.1724    1.0339
     8         C       -2.2320    1.3066   -0.9155
     9         C       -2.5942    1.3248    0.4886
    10         C        0.1391   -2.3932    0.5721
    11         H       -2.2596   -1.6131   -0.1341
    12         H        2.4638   -1.0377   -0.5277
    13         H        1.4521    0.0915   -1.4970
    14         H        1.3546   -0.1792    1.5988
    15         H        0.4175    0.9735    0.6253
    16         H        3.5256    0.9091    0.6502
    17         H        2.5177    2.0480   -0.3391
    18         H        3.7379    0.9895   -1.1389
    19         H       -1.3103   -0.1372   -2.1797
    20         H       -2.4071   -0.0814    2.0761
    21         H       -2.3979    2.1079   -1.6278
    22         H       -3.0792    2.1421    1.0118
    23         H        1.1463   -2.6941    0.8568
    24         H       -0.5936   -3.1887    0.4456

  H: (PM3): J. J. P. STEWART, J. COMP. CHEM. 10, 209 (1989).
  C: (PM3): J. J. P. STEWART, J. COMP. CHEM. 10, 209 (1989).

           Empirical Formula: C10 H14  =    24 atoms



      MOLECULAR POINT GROUP   :   C1  


      RHF CALCULATION, NO. OF DOUBLY OCCUPIED LEVELS =   27

      Geometry optimization using EF

          DIAGONAL MATRIX USED AS START HESSIAN

 CYCLE:     1 TIME:   0.012 TIME LEFT:  2.00D  GRAD.:   110.422 HEAT: 39.35538
 CYCLE:     2 TIME:   0.022 TIME LEFT:  2.00D  GRAD.:    74.240 HEAT: 37.75617
 CYCLE:     3 TIME:   0.011 TIME LEFT:  2.00D  GRAD.:    24.317 HEAT: 36.19203
 CYCLE:     4 TIME:   0.020 TIME LEFT:  2.00D  GRAD.:    48.633 HEAT: 36.11776
 CYCLE:     5 TIME:   0.008 TIME LEFT:  2.00D  GRAD.:    31.417 HEAT: 35.60298
 CYCLE:     6 TIME:   0.015 TIME LEFT:  2.00D  GRAD.:    21.339 HEAT: 35.37379
 CYCLE:     7 TIME:   0.008 TIME LEFT:  2.00D  GRAD.:    19.335 HEAT: 35.18720
 CYCLE:     8 TIME:   0.008 TIME LEFT:  2.00D  GRAD.:    27.124 HEAT: 35.07593
 CYCLE:     9 TIME:   0.014 TIME LEFT:  2.00D  GRAD.:    24.776 HEAT: 35.00355
 CYCLE:    10 TIME:   0.008 TIME LEFT:  2.00D  GRAD.:    17.094 HEAT: 34.93172
 CYCLE:    11 TIME:   0.008 TIME LEFT:  2.00D  GRAD.:    14.810 HEAT: 34.86868
 CYCLE:    12 TIME:   0.014 TIME LEFT:  2.00D  GRAD.:    15.426 HEAT: 34.85885
 CYCLE:    13 TIME:   0.008 TIME LEFT:  2.00D  GRAD.:    12.243 HEAT: 34.82182
 CYCLE:    14 TIME:   0.011 TIME LEFT:  2.00D  GRAD.:    11.817 HEAT: 34.79925
 CYCLE:    15 TIME:   0.008 TIME LEFT:  2.00D  GRAD.:    11.693 HEAT: 34.77162
 CYCLE:    16 TIME:   0.009 TIME LEFT:  2.00D  GRAD.:     9.322 HEAT: 34.73856
 CYCLE:    17 TIME:   0.014 TIME LEFT:  2.00D  GRAD.:     8.221 HEAT: 34.71688
 CYCLE:    18 TIME:   0.008 TIME LEFT:  2.00D  GRAD.:     5.926 HEAT: 34.69020
 CYCLE:    19 TIME:   0.008 TIME LEFT:  2.00D  GRAD.:     7.866 HEAT: 34.66837
 CYCLE:    20 TIME:   0.008 TIME LEFT:  2.00D  GRAD.:     8.389 HEAT: 34.63726
 CYCLE:    21 TIME:   0.008 TIME LEFT:  2.00D  GRAD.:     9.403 HEAT: 34.60365
 CYCLE:    22 TIME:   0.008 TIME LEFT:  2.00D  GRAD.:    10.290 HEAT: 34.57845
 CYCLE:    23 TIME:   0.008 TIME LEFT:  2.00D  GRAD.:     9.564 HEAT: 34.56421
 CYCLE:    24 TIME:   0.008 TIME LEFT:  2.00D  GRAD.:     5.377 HEAT: 34.54438
 CYCLE:    25 TIME:   0.008 TIME LEFT:  2.00D  GRAD.:     5.205 HEAT: 34.54058
 CYCLE:    26 TIME:   0.008 TIME LEFT:  2.00D  GRAD.:     4.800 HEAT: 34.53570
 CYCLE:    27 TIME:   0.008 TIME LEFT:  2.00D  GRAD.:     5.596 HEAT: 34.53457
 CYCLE:    28 TIME:   0.007 TIME LEFT:  2.00D  GRAD.:     2.529 HEAT: 34.52481
 CYCLE:    29 TIME:   0.008 TIME LEFT:  2.00D  GRAD.:     3.631 HEAT: 34.52391
 CYCLE:    30 TIME:   0.008 TIME LEFT:  2.00D  GRAD.:     1.575 HEAT: 34.51746
 CYCLE:    31 TIME:   0.008 TIME LEFT:  2.00D  GRAD.:     2.189 HEAT: 34.51434
 CYCLE:    32 TIME:   0.008 TIME LEFT:  2.00D  GRAD.:     2.355 HEAT: 34.51148
 CYCLE:    33 TIME:   0.008 TIME LEFT:  2.00D  GRAD.:     1.869 HEAT: 34.50963
 CYCLE:    34 TIME:   0.007 TIME LEFT:  2.00D  GRAD.:     1.082 HEAT: 34.50769
 CYCLE:    35 TIME:   0.008 TIME LEFT:  2.00D  GRAD.:     1.301 HEAT: 34.50618
 CYCLE:    36 TIME:   0.008 TIME LEFT:  2.00D  GRAD.:     1.321 HEAT: 34.50444
 CYCLE:    37 TIME:   0.008 TIME LEFT:  2.00D  GRAD.:     1.065 HEAT: 34.50295
 CYCLE:    38 TIME:   0.008 TIME LEFT:  2.00D  GRAD.:     0.893 HEAT: 34.50196
 CYCLE:    39 TIME:   0.008 TIME LEFT:  2.00D  GRAD.:     1.280 HEAT: 34.50002
 CYCLE:    40 TIME:   0.008 TIME LEFT:  2.00D  GRAD.:     1.758 HEAT: 34.49650
 CYCLE:    41 TIME:   0.008 TIME LEFT:  2.00D  GRAD.:     1.707 HEAT: 34.49271
 CYCLE:    42 TIME:   0.008 TIME LEFT:  2.00D  GRAD.:     1.772 HEAT: 34.48696
 CYCLE:    43 TIME:   0.008 TIME LEFT:  2.00D  GRAD.:     2.360 HEAT: 34.47898
 CYCLE:    44 TIME:   0.008 TIME LEFT:  2.00D  GRAD.:     2.611 HEAT: 34.47002
 CYCLE:    45 TIME:   0.008 TIME LEFT:  2.00D  GRAD.:     1.931 HEAT: 34.46256
 CYCLE:    46 TIME:   0.008 TIME LEFT:  2.00D  GRAD.:     1.210 HEAT: 34.45783
 CYCLE:    47 TIME:   0.008 TIME LEFT:  2.00D  GRAD.:     1.419 HEAT: 34.45331
 CYCLE:    48 TIME:   0.010 TIME LEFT:  2.00D  GRAD.:     1.400 HEAT: 34.44992
 CYCLE:    49 TIME:   0.010 TIME LEFT:  2.00D  GRAD.:     0.911 HEAT: 34.44789
 CYCLE:    50 TIME:   0.009 TIME LEFT:  2.00D  GRAD.:     0.771 HEAT: 34.44654
 CYCLE:    51 TIME:   0.008 TIME LEFT:  2.00D  GRAD.:     1.066 HEAT: 34.44482
 CYCLE:    52 TIME:   0.008 TIME LEFT:  2.00D  GRAD.:     1.339 HEAT: 34.44254
 CYCLE:    53 TIME:   0.008 TIME LEFT:  2.00D  GRAD.:     1.421 HEAT: 34.43946
 CYCLE:    54 TIME:   0.008 TIME LEFT:  2.00D  GRAD.:     1.117 HEAT: 34.43730
 CYCLE:    55 TIME:   0.008 TIME LEFT:  2.00D  GRAD.:     1.399 HEAT: 34.43335
 CYCLE:    56 TIME:   0.008 TIME LEFT:  2.00D  GRAD.:     1.416 HEAT: 34.43081
 CYCLE:    57 TIME:   0.012 TIME LEFT:  2.00D  GRAD.:     1.036 HEAT: 34.42675
 CYCLE:    58 TIME:   0.008 TIME LEFT:  2.00D  GRAD.:     0.917 HEAT: 34.42494
 CYCLE:    59 TIME:   0.008 TIME LEFT:  2.00D  GRAD.:     1.340 HEAT: 34.42035
 CYCLE:    60 TIME:   0.008 TIME LEFT:  2.00D  GRAD.:     1.403 HEAT: 34.41799
 CYCLE:    61 TIME:   0.008 TIME LEFT:  2.00D  GRAD.:     1.108 HEAT: 34.41414
 CYCLE:    62 TIME:   0.008 TIME LEFT:  2.00D  GRAD.:     1.043 HEAT: 34.41122
 CYCLE:    63 TIME:   0.008 TIME LEFT:  2.00D  GRAD.:     1.127 HEAT: 34.40882
 CYCLE:    64 TIME:   0.008 TIME LEFT:  2.00D  GRAD.:     1.054 HEAT: 34.40678
 CYCLE:    65 TIME:   0.008 TIME LEFT:  2.00D  GRAD.:     0.851 HEAT: 34.40510
 CYCLE:    66 TIME:   0.008 TIME LEFT:  2.00D  GRAD.:     0.714 HEAT: 34.40396
 CYCLE:    67 TIME:   0.008 TIME LEFT:  2.00D  GRAD.:     0.603 HEAT: 34.40317
 CYCLE:    68 TIME:   0.008 TIME LEFT:  2.00D  GRAD.:     0.432 HEAT: 34.40258
 CYCLE:    69 TIME:   0.008 TIME LEFT:  2.00D  GRAD.:     0.326 HEAT: 34.40215
 CYCLE:    70 TIME:   0.008 TIME LEFT:  2.00D  GRAD.:     0.344 HEAT: 34.40182
 CYCLE:    71 TIME:   0.008 TIME LEFT:  2.00D  GRAD.:     0.325 HEAT: 34.40163
 CYCLE:    72 TIME:   0.008 TIME LEFT:  2.00D  GRAD.:     0.298 HEAT: 34.40141
 CYCLE:    73 TIME:   0.008 TIME LEFT:  2.00D  GRAD.:     0.278 HEAT: 34.40127
 CYCLE:    74 TIME:   0.008 TIME LEFT:  2.00D  GRAD.:     0.451 HEAT: 34.40091
 CYCLE:    75 TIME:   0.008 TIME LEFT:  2.00D  GRAD.:     0.300 HEAT: 34.40078
 CYCLE:    76 TIME:   0.008 TIME LEFT:  2.00D  GRAD.:     0.444 HEAT: 34.40048
 CYCLE:    77 TIME:   0.007 TIME LEFT:  2.00D  GRAD.:     0.361 HEAT: 34.40035
 CYCLE:    78 TIME:   0.008 TIME LEFT:  2.00D  GRAD.:     0.327 HEAT: 34.39993
 CYCLE:    79 TIME:   0.007 TIME LEFT:  2.00D  GRAD.:     0.218 HEAT: 34.39983
 CYCLE:    80 TIME:   0.008 TIME LEFT:  2.00D  GRAD.:     0.315 HEAT: 34.39970
 CYCLE:    81 TIME:   0.008 TIME LEFT:  2.00D  GRAD.:     0.223 HEAT: 34.39960
 CYCLE:    82 TIME:   0.008 TIME LEFT:  2.00D  GRAD.:     0.205 HEAT: 34.39947
 CYCLE:    83 TIME:   0.008 TIME LEFT:  2.00D  GRAD.:     0.300 HEAT: 34.39929
 CYCLE:    84 TIME:   0.008 TIME LEFT:  2.00D  GRAD.:     0.368 HEAT: 34.39905
 CYCLE:    85 TIME:   0.008 TIME LEFT:  2.00D  GRAD.:     0.449 HEAT: 34.39850
 CYCLE:    86 TIME:   0.008 TIME LEFT:  2.00D  GRAD.:     0.388 HEAT: 34.39818
 CYCLE:    87 TIME:   0.008 TIME LEFT:  2.00D  GRAD.:     0.378 HEAT: 34.39760
 CYCLE:    88 TIME:   0.008 TIME LEFT:  2.00D  GRAD.:     0.317 HEAT: 34.39743
 CYCLE:    89 TIME:   0.008 TIME LEFT:  2.00D  GRAD.:     0.658 HEAT: 34.39668
 CYCLE:    90 TIME:   0.008 TIME LEFT:  2.00D  GRAD.:     0.522 HEAT: 34.39640
 CYCLE:    91 TIME:   0.008 TIME LEFT:  2.00D  GRAD.:     0.684 HEAT: 34.39507
 CYCLE:    92 TIME:   0.008 TIME LEFT:  2.00D  GRAD.:     0.690 HEAT: 34.39429
 CYCLE:    93 TIME:   0.008 TIME LEFT:  2.00D  GRAD.:     0.856 HEAT: 34.39269
 CYCLE:    94 TIME:   0.008 TIME LEFT:  2.00D  GRAD.:     0.640 HEAT: 34.39135
 CYCLE:    95 TIME:   0.008 TIME LEFT:  2.00D  GRAD.:     0.759 HEAT: 34.38760
 CYCLE:    96 TIME:   0.008 TIME LEFT:  2.00D  GRAD.:     0.689 HEAT: 34.38496
 CYCLE:    97 TIME:   0.008 TIME LEFT:  2.00D  GRAD.:     0.741 HEAT: 34.38327
 CYCLE:    98 TIME:   0.008 TIME LEFT:  2.00D  GRAD.:     0.427 HEAT: 34.38231
 CYCLE:    99 TIME:   0.008 TIME LEFT:  2.00D  GRAD.:     0.336 HEAT: 34.38179
 CYCLE:   100 TIME:   0.008 TIME LEFT:  2.00D  GRAD.:     0.213 HEAT: 34.38165
 CYCLE:   101 TIME:   0.008 TIME LEFT:  2.00D  GRAD.:     0.173 HEAT: 34.38155
 CYCLE:   102 TIME:   0.008 TIME LEFT:  2.00D  GRAD.:     0.201 HEAT: 34.38148
 CYCLE:   103 TIME:   0.008 TIME LEFT:  2.00D  GRAD.:     0.235 HEAT: 34.38137
 CYCLE:   104 TIME:   0.008 TIME LEFT:  2.00D  GRAD.:     0.229 HEAT: 34.38125
 CYCLE:   105 TIME:   0.008 TIME LEFT:  2.00D  GRAD.:     0.341 HEAT: 34.38104
 CYCLE:   106 TIME:   0.008 TIME LEFT:  2.00D  GRAD.:     0.267 HEAT: 34.38088
 CYCLE:   107 TIME:   0.008 TIME LEFT:  2.00D  GRAD.:     0.381 HEAT: 34.38060
 CYCLE:   108 TIME:   0.008 TIME LEFT:  2.00D  GRAD.:     0.396 HEAT: 34.38033
 CYCLE:   109 TIME:   0.008 TIME LEFT:  2.00D  GRAD.:     0.371 HEAT: 34.37967
 CYCLE:   110 TIME:   0.008 TIME LEFT:  2.00D  GRAD.:     0.292 HEAT: 34.37934
 CYCLE:   111 TIME:   0.008 TIME LEFT:  2.00D  GRAD.:     0.190 HEAT: 34.37907
 CYCLE:   112 TIME:   0.008 TIME LEFT:  2.00D  GRAD.:     0.146 HEAT: 34.37902
 CYCLE:   113 TIME:   0.008 TIME LEFT:  2.00D  GRAD.:     0.173 HEAT: 34.37897
 CYCLE:   114 TIME:   0.008 TIME LEFT:  2.00D  GRAD.:     0.104 HEAT: 34.37893
 CYCLE:   115 TIME:   0.007 TIME LEFT:  2.00D  GRAD.:     0.075 HEAT: 34.37890
 CYCLE:   116 TIME:   0.008 TIME LEFT:  2.00D  GRAD.:     0.100 HEAT: 34.37889
 CYCLE:   117 TIME:   0.008 TIME LEFT:  2.00D  GRAD.:     0.098 HEAT: 34.37887
 CYCLE:   118 TIME:   0.007 TIME LEFT:  2.00D  GRAD.:     0.075 HEAT: 34.37885
 CYCLE:   119 TIME:   0.007 TIME LEFT:  2.00D  GRAD.:     0.079 HEAT: 34.37883
 CYCLE:   120 TIME:   0.008 TIME LEFT:  2.00D  GRAD.:     0.119 HEAT: 34.37881
 CYCLE:   121 TIME:   0.007 TIME LEFT:  2.00D  GRAD.:     0.090 HEAT: 34.37880
 CYCLE:   122 TIME:   0.008 TIME LEFT:  2.00D  GRAD.:     0.150 HEAT: 34.37878
 CYCLE:   123 TIME:   0.008 TIME LEFT:  2.00D  GRAD.:     0.084 HEAT: 34.37876
 CYCLE:   124 TIME:   0.007 TIME LEFT:  2.00D  GRAD.:     0.077 HEAT: 34.37874
 CYCLE:   125 TIME:   0.007 TIME LEFT:  2.00D  GRAD.:     0.095 HEAT: 34.37873
 CYCLE:   126 TIME:   0.007 TIME LEFT:  2.00D  GRAD.:     0.099 HEAT: 34.37870
 CYCLE:   127 TIME:   0.008 TIME LEFT:  2.00D  GRAD.:     0.136 HEAT: 34.37865
 CYCLE:   128 TIME:   0.008 TIME LEFT:  2.00D  GRAD.:     0.184 HEAT: 34.37859
 CYCLE:   129 TIME:   0.007 TIME LEFT:  2.00D  GRAD.:     0.172 HEAT: 34.37852
 CYCLE:   130 TIME:   0.008 TIME LEFT:  2.00D  GRAD.:     0.219 HEAT: 34.37835
 CYCLE:   131 TIME:   0.008 TIME LEFT:  2.00D  GRAD.:     0.212 HEAT: 34.37828
 CYCLE:   132 TIME:   0.008 TIME LEFT:  2.00D  GRAD.:     0.115 HEAT: 34.37815
 CYCLE:   133 TIME:   0.008 TIME LEFT:  2.00D  GRAD.:     0.074 HEAT: 34.37812
 CYCLE:   134 TIME:   0.008 TIME LEFT:  2.00D  GRAD.:     0.061 HEAT: 34.37808
 CYCLE:   135 TIME:   0.008 TIME LEFT:  2.00D  GRAD.:     0.024 HEAT: 34.37807

     RMS GRADIENT =  0.02392  IS LESS THAN CUTOFF =  0.05000



 -------------------------------------------------------------------------------
pm3  precise nosym
 InChI=1S/C10H14/c1-3-6-9(2)10-7-4-5-8-10/h4-5,7-8,10H,2-3,6H2,1H3



     GEOMETRY OPTIMISED USING EIGENVECTOR FOLLOWING (EF).     
     SCF FIELD WAS ACHIEVED                                   


                              PM3 CALCULATION
                                                       MOPAC2012 (Version: 13.159M)
                                                       Mon Jun  2 11:13:43 2014
                                                       No. of days left =   6




          FINAL HEAT OF FORMATION =         34.37807 KCAL/MOL =     143.83786 KJ/MOL


          TOTAL ENERGY            =      -1399.57088 EV
          ELECTRONIC ENERGY       =      -7830.92389 EV  POINT GROUP:     C1  
          CORE-CORE REPULSION     =       6431.35300 EV
          COSMO AREA              =        190.93 SQUARE ANGSTROMS
          COSMO VOLUME            =        199.53 CUBIC ANGSTROMS

          GRADIENT NORM           =          0.02392
          IONIZATION POTENTIAL    =          9.252771 EV
          HOMO LUMO ENERGIES (EV) =         -9.253  0.261
          NO. OF FILLED LEVELS    =         27
          MOLECULAR WEIGHT        =        134.221

          MOLECULAR DIMENSIONS (Angstroms)

            Atom       Atom       Distance
            H    23    H    22     6.45608
            H    23    H    22     6.45216
            H    19    H    14     4.10692


          SCF CALCULATIONS        =        143
          COMPUTATION TIME        =          1.144 SECONDS




   ATOM   CHEMICAL          X               Y               Z
  NUMBER   SYMBOL      (ANGSTROMS)     (ANGSTROMS)     (ANGSTROMS)
 
     1       C         -1.53352351  *  -0.71123083  *   0.04997188  *
     2       C          1.78333903  *   0.03232058  *  -0.54198308  *
     3       C          0.88487257  *  -0.12340726  *   0.67770919  *
     4       C          2.83734525  *   1.09246068  *  -0.31845618  *
     5       C         -0.16329802  *  -1.16706660  *   0.44696126  *
     6       C         -1.55316275  *   0.10414899  *  -1.22411143  *
     7       C         -2.15999912  *   0.23530899  *   1.05017888  *
     8       C         -2.14133497  *   1.29700288  *  -0.98785543  *
     9       C         -2.51809099  *   1.37884715  *   0.42673998  *
    10       C          0.11014970  *  -2.46408766  *   0.59458728  *
    11       H         -2.21400390  *  -1.58825813  *  -0.08185107  *
    12       H          2.26183441  *  -0.93841274  *  -0.78035456  *
    13       H          1.16497388  *   0.28707788  *  -1.42692827  *
    14       H          1.49369410  *  -0.39256209  *   1.56430108  *
    15       H          0.40484560  *   0.84565499  *   0.92429030  *
    16       H          3.48321484  *   0.84827649  *   0.53553423  *
    17       H          2.38807097  *   2.07404391  *  -0.11679777  *
    18       H          3.48401187  *   1.20192326  *  -1.19832106  *
    19       H         -1.14450458  *  -0.26927482  *  -2.16076349  *
    20       H         -2.28321750  *  -0.02457396  *   2.09899708  *
    21       H         -2.32621210  *   2.09724146  *  -1.70171469  *
    22       H         -3.00963726  *   2.24567365  *   0.86398153  *
    23       H          1.09435059  *  -2.82132822  *   0.88496959  *
    24       H         -0.62280319  *  -3.25011502  *   0.43621380  *

           Empirical Formula: C10 H14  =    24 atoms



      MOLECULAR POINT GROUP   :   C1  


                  EIGENVALUES  
 -41.16495 -36.58650 -32.33784 -27.34555 -26.34072 -25.90593 -21.43929 -19.87974
 -18.60755 -18.45054 -17.71253 -16.52411 -15.76018 -15.12056 -14.53351 -14.01905
 -13.94602 -13.38328 -13.17253 -12.74291 -12.56461 -12.42017 -12.24666 -11.40686
 -11.03121 -10.06175  -9.25277   0.26131   0.96347   1.98049   3.15671   3.34576
   3.37492   3.69676   3.76041   3.87159   3.89918   4.01719   4.08162   4.09982
   4.19180   4.31445   4.35476   4.46344   4.52085   4.62846   4.96417   5.02898
   5.04399   5.46188   5.73807   5.82519   5.90978   6.10576


              NET ATOMIC CHARGES AND DIPOLE CONTRIBUTIONS

  ATOM NO.   TYPE          CHARGE      No. of ELECS.   s-Pop       p-Pop       
    1          C           0.004893        3.9951     1.15385     2.84126
    2          C          -0.097892        4.0979     1.15909     2.93880
    3          C          -0.066378        4.0664     1.15095     2.91542
    4          C          -0.109221        4.1092     1.13825     2.97097
    5          C          -0.082933        4.0829     1.19461     2.88832
    6          C          -0.151463        4.1515     1.20900     2.94246
    7          C          -0.152631        4.1526     1.20903     2.94360
    8          C          -0.120913        4.1209     1.19287     2.92804
    9          C          -0.120050        4.1201     1.19293     2.92712
   10          C          -0.170918        4.1709     1.18395     2.98697
   11          H           0.093237        0.9068     0.90676
   12          H           0.049545        0.9505     0.95046
   13          H           0.054872        0.9451     0.94513
   14          H           0.054506        0.9455     0.94549
   15          H           0.065841        0.9342     0.93416
   16          H           0.036918        0.9631     0.96308
   17          H           0.038939        0.9611     0.96106
   18          H           0.036961        0.9630     0.96304
   19          H           0.119534        0.8805     0.88047
   20          H           0.118920        0.8811     0.88108
   21          H           0.114439        0.8856     0.88556
   22          H           0.114351        0.8856     0.88565
   23          H           0.085643        0.9144     0.91436
   24          H           0.083800        0.9162     0.91620
 DIPOLE           X         Y         Z       TOTAL
 POINT-CHG.     0.101    -0.068    -0.010     0.122
 HYBRID        -0.049    -0.059    -0.013     0.078
 SUM            0.051    -0.127    -0.023     0.139


          ATOMIC ORBITAL ELECTRON POPULATIONS

    Atom      s        px        py        pz   
    1  C   1.15385   0.93681   0.97761   0.92684
    2  C   1.15909   0.97133   0.99004   0.97743
    3  C   1.15095   0.95781   0.98212   0.97550
    4  C   1.13825   0.98079   0.98327   1.00691
    5  C   1.19461   0.94289   0.95629   0.98914
    6  C   1.20900   1.00316   0.96234   0.97696
    7  C   1.20903   1.00349   0.95933   0.98079
    8  C   1.19287   0.99928   0.97112   0.95765
    9  C   1.19293   1.00492   0.97464   0.94756
   10  C   1.18395   1.01268   0.95159   1.02270
   11  H   0.90676
   12  H   0.95046
   13  H   0.94513
   14  H   0.94549
   15  H   0.93416
   16  H   0.96308
   17  H   0.96106
   18  H   0.96304
   19  H   0.88047
   20  H   0.88108
   21  H   0.88556
   22  H   0.88565
   23  H   0.91436
   24  H   0.91620
 *******************************************************************************
 ** Site#: 14399           For non-commercial use only        Version 13.159M **
 *******************************************************************************
 ** Cite this work as: MOPAC2012, James J. P. Stewart, Stewart Computational  **
 ** Chemistry, Version 13.159M web: HTTP://OpenMOPAC.net  Days remaining:   6 **
 *******************************************************************************
 **                                                                           **
 **                                MOPAC2012                                  **
 **                                                                           **
 *******************************************************************************

                            PM3 CALCULATION RESULTS


 *******************************************************************************
 *  CALCULATION DONE:                                Mon Jun  2 11:13:43 2014  *
 *  PM3      - The PM3 Hamiltonian to be used
 *  OLDGEO   - PREVIOUS GEOMETRY TO BE USED
 *  PRECISE  - CRITERIA TO BE INCREASED BY 100 TIMES
 *  NOSYM    - POINT-GROUP SYMMETRY SET TO C1
 *  T=       - A TIME OF 172800.0 SECONDS REQUESTED
 *  DUMP=N   - RESTART FILE WRITTEN EVERY  7200.000 SECONDS
 *  THERMO   - THERMODYNAMIC QUANTITIES TO BE CALCULATED
 *******************************************************************************
oldgeo thermo nosym precise  pm3

   ATOM   CHEMICAL          X               Y               Z
  NUMBER   SYMBOL      (ANGSTROMS)     (ANGSTROMS)     (ANGSTROMS)
 
     1       C         -1.53352351  *  -0.71123083  *   0.04997188  *
     2       C          1.78333903  *   0.03232058  *  -0.54198308  *
     3       C          0.88487257  *  -0.12340726  *   0.67770919  *
     4       C          2.83734525  *   1.09246068  *  -0.31845618  *
     5       C         -0.16329802  *  -1.16706660  *   0.44696126  *
     6       C         -1.55316275  *   0.10414899  *  -1.22411143  *
     7       C         -2.15999912  *   0.23530899  *   1.05017888  *
     8       C         -2.14133497  *   1.29700288  *  -0.98785543  *
     9       C         -2.51809099  *   1.37884715  *   0.42673998  *
    10       C          0.11014970  *  -2.46408766  *   0.59458728  *
    11       H         -2.21400390  *  -1.58825813  *  -0.08185107  *
    12       H          2.26183441  *  -0.93841274  *  -0.78035456  *
    13       H          1.16497388  *   0.28707788  *  -1.42692827  *
    14       H          1.49369410  *  -0.39256209  *   1.56430108  *
    15       H          0.40484560  *   0.84565499  *   0.92429030  *
    16       H          3.48321484  *   0.84827649  *   0.53553423  *
    17       H          2.38807097  *   2.07404391  *  -0.11679777  *
    18       H          3.48401187  *   1.20192326  *  -1.19832106  *
    19       H         -1.14450458  *  -0.26927482  *  -2.16076349  *
    20       H         -2.28321750  *  -0.02457396  *   2.09899708  *
    21       H         -2.32621210  *   2.09724146  *  -1.70171469  *
    22       H         -3.00963726  *   2.24567365  *   0.86398153  *
    23       H          1.09435059  *  -2.82132822  *   0.88496959  *
    24       H         -0.62280319  *  -3.25011502  *   0.43621380  *
 


          CARTESIAN COORDINATES 

    NO.       ATOM         X         Y         Z

     1         C       -1.5335   -0.7112    0.0500
     2         C        1.7833    0.0323   -0.5420
     3         C        0.8849   -0.1234    0.6777
     4         C        2.8373    1.0925   -0.3185
     5         C       -0.1633   -1.1671    0.4470
     6         C       -1.5532    0.1041   -1.2241
     7         C       -2.1600    0.2353    1.0502
     8         C       -2.1413    1.2970   -0.9879
     9         C       -2.5181    1.3788    0.4267
    10         C        0.1101   -2.4641    0.5946
    11         H       -2.2140   -1.5883   -0.0819
    12         H        2.2618   -0.9384   -0.7804
    13         H        1.1650    0.2871   -1.4269
    14         H        1.4937   -0.3926    1.5643
    15         H        0.4048    0.8457    0.9243
    16         H        3.4832    0.8483    0.5355
    17         H        2.3881    2.0740   -0.1168
    18         H        3.4840    1.2019   -1.1983
    19         H       -1.1445   -0.2693   -2.1608
    20         H       -2.2832   -0.0246    2.0990
    21         H       -2.3262    2.0972   -1.7017
    22         H       -3.0096    2.2457    0.8640
    23         H        1.0944   -2.8213    0.8850
    24         H       -0.6228   -3.2501    0.4362

  H: (PM3): J. J. P. STEWART, J. COMP. CHEM. 10, 209 (1989).
  C: (PM3): J. J. P. STEWART, J. COMP. CHEM. 10, 209 (1989).

           Empirical Formula: C10 H14  =    24 atoms



      MOLECULAR POINT GROUP   :   C1  


      RHF CALCULATION, NO. OF DOUBLY OCCUPIED LEVELS =   27



          HEAT OF FORMATION =      34.378075 KCALS/MOLE


          INTERNAL COORDINATE DERIVATIVES

   NUMBER  ATOM       BOND         ANGLE      DIHEDRAL

     1       C      0.004819     0.001076    -0.005112
     2       C      0.003170    -0.001003     0.000110
     3       C      0.003429    -0.002421    -0.001082
     4       C     -0.001407    -0.001571     0.003628
     5       C      0.003653    -0.001168    -0.001043
     6       C      0.005918     0.004439     0.004252
     7       C     -0.003462    -0.000268     0.008594
     8       C     -0.008126     0.013334    -0.006195
     9       C     -0.001939    -0.013126    -0.002490
    10       C     -0.001386     0.001198    -0.002606
    11       H      0.006309     0.001175     0.001643
    12       H     -0.000861     0.000452    -0.004694
    13       H      0.003887     0.002519    -0.001621
    14       H     -0.007414    -0.001808    -0.001436
    15       H     -0.000147    -0.001149     0.002968
    16       H      0.002134     0.004764     0.000931
    17       H     -0.006839    -0.002346    -0.001538
    18       H      0.000961    -0.004708     0.005416
    19       H     -0.000996    -0.000051     0.000163
    20       H      0.000741    -0.001004    -0.004498
    21       H     -0.001400     0.000983    -0.001065
    22       H      0.001447     0.001213     0.001999
    23       H     -0.006036    -0.002182     0.000030
    24       H      0.003543     0.001651     0.003646


          GRADIENT NORM =   0.03388


          TIME FOR SCF CALCULATION =    0.01

          TIME FOR DERIVATIVES     =    0.01

          MOLECULAR WEIGHT =  134.22



          ROTATIONAL CONSTANTS IN CM(-1)

          A =    0.06206905   B =    0.03300411   C =    0.02607678



           PRINCIPAL MOMENTS OF INERTIA IN UNITS OF 10**(-40)*GRAM-CM**2

          A =      450.9941   B =      848.1603   C =     1073.4750


          ORIENTATION OF MOLECULE IN FORCE CALCULATION

    NO.       ATOM         X         Y         Z

     1          C      -1.2748   -0.2033    0.4045
     2          C       2.1755   -0.2033    0.4045
     3          C       1.0690    0.8430    0.4045
     4          C       3.3789    0.2670   -0.3801
     5          C      -0.1239    0.3678    1.1740
     6          C      -0.8994   -1.3960   -0.4471
     7          C      -1.8447    0.7571   -0.6162
     8          C      -1.2483   -1.1620   -1.7309
     9          C      -1.8355    0.1773   -1.8362
    10          C      -0.1659    0.4538    2.5043
    11          H      -2.0954   -0.5098    1.0990
    12          H       2.4672   -0.4391    1.4473
    13          H       1.7878   -1.1518   -0.0202
    14          H       1.4442    1.7906    0.8410
    15          H       0.7741    1.0865   -0.6367
    16          H       3.8006    1.1903    0.0391
    17          H       3.1239    0.4722   -1.4284
    18          H       4.1751   -0.4882   -0.3777
    19          H      -0.4263   -2.2829   -0.0307
    20          H      -2.1991    1.7494   -0.3470
    21          H      -1.1311   -1.8306   -2.5814
    22          H      -2.1963    0.5986   -2.7724
    23          H       0.6534    0.8668    3.0863
    24          H      -1.0127    0.1200    3.0973


    FIRST DERIVATIVES WILL BE USED IN THE CALCULATION OF SECOND DERIVATIVES

          ESTIMATED TIME TO COMPLETE CALCULATION =        3.34 SECONDS

    FOR POINT-GROUP C1   THERE ARE   1 UNIQUE SYMMETRY FUNCTIONS.

 STEP:   1 TIME =     0.04 SECS, INTEGRAL =      0.04 TIME LEFT: 172799.95
 STEP:   2 TIME =     0.04 SECS, INTEGRAL =      0.07 TIME LEFT: 172799.91
 STEP:   3 TIME =     0.04 SECS, INTEGRAL =      0.11 TIME LEFT: 172799.88
 STEP:   4 TIME =     0.04 SECS, INTEGRAL =      0.15 TIME LEFT: 172799.84
 STEP:   5 TIME =     0.04 SECS, INTEGRAL =      0.18 TIME LEFT: 172799.81
 STEP:   6 TIME =     0.04 SECS, INTEGRAL =      0.22 TIME LEFT: 172799.77
 STEP:   7 TIME =     0.04 SECS, INTEGRAL =      0.25 TIME LEFT: 172799.73
 STEP:   8 TIME =     0.04 SECS, INTEGRAL =      0.29 TIME LEFT: 172799.70
 STEP:   9 TIME =     0.03 SECS, INTEGRAL =      0.33 TIME LEFT: 172799.66
 STEP:  10 TIME =     0.03 SECS, INTEGRAL =      0.36 TIME LEFT: 172799.63
 STEP:  11 TIME =     0.03 SECS, INTEGRAL =      0.39 TIME LEFT: 172799.59
 STEP:  12 TIME =     0.03 SECS, INTEGRAL =      0.43 TIME LEFT: 172799.56
 STEP:  13 TIME =     0.04 SECS, INTEGRAL =      0.47 TIME LEFT: 172799.52
 STEP:  14 TIME =     0.04 SECS, INTEGRAL =      0.50 TIME LEFT: 172799.48
 STEP:  15 TIME =     0.04 SECS, INTEGRAL =      0.54 TIME LEFT: 172799.45
 STEP:  16 TIME =     0.04 SECS, INTEGRAL =      0.58 TIME LEFT: 172799.41
 STEP:  17 TIME =     0.04 SECS, INTEGRAL =      0.61 TIME LEFT: 172799.38
 STEP:  18 TIME =     0.04 SECS, INTEGRAL =      0.65 TIME LEFT: 172799.34
 STEP:  19 TIME =     0.04 SECS, INTEGRAL =      0.69 TIME LEFT: 172799.30
 STEP:  20 TIME =     0.04 SECS, INTEGRAL =      0.73 TIME LEFT: 172799.26
 STEP:  21 TIME =     0.04 SECS, INTEGRAL =      0.76 TIME LEFT: 172799.23
 STEP:  22 TIME =     0.04 SECS, INTEGRAL =      0.80 TIME LEFT: 172799.19
 STEP:  23 TIME =     0.04 SECS, INTEGRAL =      0.84 TIME LEFT: 172799.15
 STEP:  24 TIME =     0.04 SECS, INTEGRAL =      0.88 TIME LEFT: 172799.11
 STEP:  25 TIME =     0.04 SECS, INTEGRAL =      0.92 TIME LEFT: 172799.07
 STEP:  26 TIME =     0.04 SECS, INTEGRAL =      0.95 TIME LEFT: 172799.04
 STEP:  27 TIME =     0.04 SECS, INTEGRAL =      0.99 TIME LEFT: 172799.00
 STEP:  28 TIME =     0.04 SECS, INTEGRAL =      1.02 TIME LEFT: 172798.96
 STEP:  29 TIME =     0.04 SECS, INTEGRAL =      1.06 TIME LEFT: 172798.93
 STEP:  30 TIME =     0.03 SECS, INTEGRAL =      1.10 TIME LEFT: 172798.89
 STEP:  31 TIME =     0.04 SECS, INTEGRAL =      1.14 TIME LEFT: 172798.85
 STEP:  32 TIME =     0.04 SECS, INTEGRAL =      1.17 TIME LEFT: 172798.82
 STEP:  33 TIME =     0.04 SECS, INTEGRAL =      1.21 TIME LEFT: 172798.78
 STEP:  34 TIME =     0.04 SECS, INTEGRAL =      1.24 TIME LEFT: 172798.75
 STEP:  35 TIME =     0.04 SECS, INTEGRAL =      1.28 TIME LEFT: 172798.71
 STEP:  36 TIME =     0.03 SECS, INTEGRAL =      1.31 TIME LEFT: 172798.67
 STEP:  37 TIME =     0.04 SECS, INTEGRAL =      1.35 TIME LEFT: 172798.64
 STEP:  38 TIME =     0.03 SECS, INTEGRAL =      1.38 TIME LEFT: 172798.60
 STEP:  39 TIME =     0.04 SECS, INTEGRAL =      1.42 TIME LEFT: 172798.57
 STEP:  40 TIME =     0.04 SECS, INTEGRAL =      1.46 TIME LEFT: 172798.53
 STEP:  41 TIME =     0.03 SECS, INTEGRAL =      1.49 TIME LEFT: 172798.50
 STEP:  42 TIME =     0.04 SECS, INTEGRAL =      1.53 TIME LEFT: 172798.46
 STEP:  43 TIME =     0.04 SECS, INTEGRAL =      1.57 TIME LEFT: 172798.42
 STEP:  44 TIME =     0.04 SECS, INTEGRAL =      1.60 TIME LEFT: 172798.39
 STEP:  45 TIME =     0.03 SECS, INTEGRAL =      1.64 TIME LEFT: 172798.35
 STEP:  46 TIME =     0.04 SECS, INTEGRAL =      1.67 TIME LEFT: 172798.32
 STEP:  47 TIME =     0.03 SECS, INTEGRAL =      1.71 TIME LEFT: 172798.28
 STEP:  48 TIME =     0.04 SECS, INTEGRAL =      1.74 TIME LEFT: 172798.25
 STEP:  49 TIME =     0.04 SECS, INTEGRAL =      1.78 TIME LEFT: 172798.21
 STEP:  50 TIME =     0.04 SECS, INTEGRAL =      1.81 TIME LEFT: 172798.17
 STEP:  51 TIME =     0.03 SECS, INTEGRAL =      1.85 TIME LEFT: 172798.14
 STEP:  52 TIME =     0.03 SECS, INTEGRAL =      1.88 TIME LEFT: 172798.11
 STEP:  53 TIME =     0.04 SECS, INTEGRAL =      1.92 TIME LEFT: 172798.07
 STEP:  54 TIME =     0.04 SECS, INTEGRAL =      1.95 TIME LEFT: 172798.03
 STEP:  55 TIME =     0.04 SECS, INTEGRAL =      1.99 TIME LEFT: 172798.00
 STEP:  56 TIME =     0.04 SECS, INTEGRAL =      2.03 TIME LEFT: 172797.96
 STEP:  57 TIME =     0.04 SECS, INTEGRAL =      2.06 TIME LEFT: 172797.93
 STEP:  58 TIME =     0.04 SECS, INTEGRAL =      2.10 TIME LEFT: 172797.89
 STEP:  59 TIME =     0.03 SECS, INTEGRAL =      2.13 TIME LEFT: 172797.86
 STEP:  60 TIME =     0.04 SECS, INTEGRAL =      2.17 TIME LEFT: 172797.82
 STEP:  61 TIME =     0.04 SECS, INTEGRAL =      2.21 TIME LEFT: 172797.78
 STEP:  62 TIME =     0.04 SECS, INTEGRAL =      2.25 TIME LEFT: 172797.74
 STEP:  63 TIME =     0.04 SECS, INTEGRAL =      2.29 TIME LEFT: 172797.70
 STEP:  64 TIME =     0.05 SECS, INTEGRAL =      2.34 TIME LEFT: 172797.65
 STEP:  65 TIME =     0.05 SECS, INTEGRAL =      2.39 TIME LEFT: 172797.60
 STEP:  66 TIME =     0.04 SECS, INTEGRAL =      2.43 TIME LEFT: 172797.56
 STEP:  67 TIME =     0.04 SECS, INTEGRAL =      2.46 TIME LEFT: 172797.53
 STEP:  68 TIME =     0.04 SECS, INTEGRAL =      2.50 TIME LEFT: 172797.49
 STEP:  69 TIME =     0.04 SECS, INTEGRAL =      2.54 TIME LEFT: 172797.45
 STEP:  70 TIME =     0.03 SECS, INTEGRAL =      2.57 TIME LEFT: 172797.42
 STEP:  71 TIME =     0.04 SECS, INTEGRAL =      2.61 TIME LEFT: 172797.38
 STEP:  72 TIME =     0.04 SECS, INTEGRAL =      2.64 TIME LEFT: 172797.35

(To convert to Hartree/Bohr^2, multiply by (10^(-21) x N x a0^2)/(4.184 x 627.51) = 0.0642)


           FORCE MATRIX IN MILLIDYNES/ANGSTROM


                  C  1       C  2       C  3       C  4       C  5       C  6
 ------------------------------------------------------------------------------
     C    1  15.184020
     C    2   0.021036  14.323055
     C    3   0.545937   4.071201  14.597756
     C    4   0.003528   4.484102   0.664624  14.381945
     C    5   4.564252   0.675855   4.645361   0.053702  18.234369
     C    6   4.070416   0.029345   0.036123   0.002999   0.608144  17.833014
     C    7   4.066514   0.004695   0.049086   0.002295   0.616164   1.090155
     C    8   1.202597   0.003249   0.013505   0.000875   0.055998   9.773558
     C    9   1.201917   0.002223   0.016692   0.001144   0.055732   1.563047
     C   10   0.841509   0.043984   0.817023   0.006384  10.692118   0.033383
     H   11   4.183994   0.002188   0.040046   0.000768   0.452364   0.379280
     H   12   0.001520   4.453567   0.443513   0.436272   0.028720   0.001772
     H   13   0.005461   4.423058   0.441673   0.436414   0.026475   0.009233
     H   14   0.033001   0.448862   4.434443   0.026439   0.436817   0.003757
     H   15   0.048647   0.446391   4.432603   0.027342   0.445751   0.005154
     H   16   0.000455   0.463542   0.023494   4.721121   0.001521   0.001010
     H   17   0.000535   0.462853   0.023586   4.725994   0.001675   0.000352
     H   18   0.000699   0.448476   0.051277   4.751189   0.009506   0.000393
     H   19   0.403084   0.011157   0.003048   0.000965   0.010619   5.073063
     H   20   0.403156   0.000915   0.004332   0.000501   0.010539   0.042548
     H   21   0.113076   0.000506   0.000790   0.000400   0.016024   0.445538
     H   22   0.112501   0.000803   0.000839   0.000394   0.016326   0.049250
     H   23   0.124903   0.015746   0.084713   0.003358   0.472585   0.017634
     H   24   0.086558   0.015936   0.118583   0.002795   0.475127   0.011137


                  C  7       C  8       C  9       C 10       H 11       H 12
 ------------------------------------------------------------------------------
     C    7  17.849268
     C    8   1.565385  18.300262
     C    9   9.776383   5.137351  18.303148
     C   10   0.033369   0.010002   0.009738  18.061582
     H   11   0.379774   0.054345   0.054526   0.065320   4.651989
     H   12   0.001245   0.000727   0.000676   0.005380   0.000256   5.066538
     H   13   0.001666   0.004741   0.001084   0.002270   0.000230   0.564801
     H   14   0.002971   0.001639   0.001908   0.042489   0.005198   0.024960
     H   15   0.020500   0.004420   0.008961   0.046265   0.001998   0.045666
     H   16   0.000483   0.000393   0.000392   0.000803   0.000112   0.024210
     H   17   0.000634   0.000531   0.000335   0.001189   0.000079   0.047260
     H   18   0.000613   0.000528   0.000564   0.001479   0.000125   0.029861
     H   19   0.042410   0.442242   0.100178   0.002978   0.011385   0.000652
     H   20   5.089216   0.100307   0.442449   0.002927   0.011509   0.000480
     H   21   0.048730   5.070063   0.419202   0.002045   0.014663   0.000247
     H   22   0.445555   0.419334   5.069535   0.001899   0.014418   0.000224
     H   23   0.017377   0.003316   0.003362   5.082634   0.002412   0.006434
     H   24   0.010818   0.002982   0.003665   5.083399   0.029340   0.000968


                  H 13       H 14       H 15       H 16       H 17       H 18
 ------------------------------------------------------------------------------
     H   13   5.037990
     H   14   0.045900   5.039598
     H   15   0.024586   0.557955   5.027283
     H   16   0.047391   0.018435   0.001685   5.465050
     H   17   0.024631   0.001496   0.018992   0.576383   5.468009
     H   18   0.029618   0.001680   0.001854   0.573350   0.574086   5.489076
     H   19   0.019350   0.000908   0.001397   0.000497   0.000301   0.000267
     H   20   0.000501   0.000770   0.002198   0.000165   0.000252   0.000089
     H   21   0.000663   0.000258   0.000768   0.000137   0.000307   0.000147
     H   22   0.000211   0.000325   0.001130   0.000095   0.000187   0.000151
     H   23   0.000606   0.021457   0.004327   0.000275   0.000484   0.000542
     H   24   0.000742   0.005739   0.008988   0.000127   0.000173   0.000472


                  H 19       H 20       H 21       H 22       H 23       H 24
 ------------------------------------------------------------------------------
     H   19   5.471767
     H   20   0.010128   5.485540
     H   21   0.041424   0.005360   5.460119
     H   22   0.005357   0.041177   0.009655   5.459810
     H   23   0.000778   0.000792   0.000875   0.000970   5.471972
     H   24   0.001081   0.001055   0.000586   0.000497   0.413869   5.477250


          HEAT OF FORMATION =      34.378075 KCALS/MOLE

          ZERO POINT ENERGY     131.761 KCAL/MOL


           NORMAL COORDINATE ANALYSIS (Total motion = 1 Angstrom)


   Root No.       1         2         3         4         5         6         7         8

                 1 A       2 A       3 A       4 A       5 A       6 A       7 A       8 A   

                  47.3      73.4      91.1     139.2     179.4     207.3     256.4     313.0
  
           1    0.0018    0.0094   -0.0067   -0.0274    0.0022   -0.0055    0.0178   -0.0168
           2   -0.0101   -0.0197    0.0067   -0.0080   -0.0197   -0.0009   -0.0295   -0.0067
           3   -0.0027    0.0028   -0.0035    0.0186    0.0028    0.0003    0.0010    0.0069
           4    0.0200   -0.0023    0.0222   -0.0135    0.0243    0.0118   -0.0295    0.0216
           5    0.0014   -0.0048    0.0260   -0.0062   -0.0093    0.0109    0.0275    0.0249
           6    0.0213    0.0154    0.0467   -0.0126   -0.0020    0.0237    0.0021   -0.0128
           7    0.0045    0.0002   -0.0044   -0.0279    0.0054   -0.0033   -0.0156    0.0166
           8   -0.0149   -0.0022   -0.0022   -0.0218   -0.0308   -0.0049    0.0400    0.0234
           9   -0.0274    0.0086   -0.0036   -0.0417    0.0071   -0.0083   -0.0099    0.0098
          10    0.0328   -0.0204   -0.0114   -0.0056    0.0024   -0.0017   -0.0077    0.0417
          11    0.0025   -0.0324   -0.0042    0.0065    0.0325   -0.0018   -0.0193   -0.0166
          12    0.0415   -0.0289   -0.0228    0.0074   -0.0139   -0.0050    0.0133   -0.0112
          13    0.0068   -0.0042   -0.0011   -0.0110    0.0014   -0.0018    0.0036    0.0009
          14   -0.0024    0.0045   -0.0075   -0.0070   -0.0215   -0.0016    0.0024    0.0000
          15   -0.0162    0.0058   -0.0017   -0.0058    0.0059   -0.0038   -0.0031   -0.0173
          16    0.0010    0.0369   -0.0147   -0.0135   -0.0267   -0.0043   -0.0082   -0.0315
          17    0.0017    0.0055    0.0000   -0.0038   -0.0215   -0.0012   -0.0267   -0.0134
          18   -0.0193   -0.0203    0.0021    0.0179   -0.0063    0.0010   -0.0168    0.0134
          19   -0.0251   -0.0184    0.0075   -0.0119    0.0290   -0.0048    0.0319   -0.0294
          20   -0.0071   -0.0154    0.0089   -0.0022    0.0043   -0.0015   -0.0067   -0.0106
          21    0.0151    0.0221   -0.0094    0.0145    0.0096   -0.0009    0.0157    0.0129
          22   -0.0235    0.0307   -0.0076    0.0424   -0.0234    0.0027   -0.0224    0.0086
          23    0.0089    0.0219   -0.0015    0.0183   -0.0032    0.0005   -0.0074    0.0045
          24   -0.0114   -0.0157    0.0000    0.0072   -0.0042   -0.0006   -0.0102    0.0061
          25   -0.0397   -0.0036    0.0062    0.0435    0.0187    0.0021    0.0188    0.0118
          26    0.0035    0.0089    0.0040    0.0189    0.0159    0.0002    0.0119    0.0064
          27    0.0100    0.0107   -0.0072    0.0051    0.0044   -0.0017    0.0075    0.0055
          28    0.0134   -0.0232    0.0091    0.0225   -0.0312    0.0038    0.0161   -0.0286
          29    0.0158    0.0363   -0.0291    0.0044    0.0380    0.0001    0.0064   -0.0098
          30   -0.0171    0.0031    0.0000   -0.0060    0.0010   -0.0039   -0.0031   -0.0171
          31    0.0163    0.0212   -0.0127   -0.0216   -0.0045   -0.0042    0.0215   -0.0046
          32   -0.0255   -0.0539    0.0184   -0.0022   -0.0098    0.0008   -0.0356    0.0012
          33    0.0076    0.0015   -0.0055    0.0259   -0.0008    0.0023    0.0025    0.0254
          34   -0.0018    0.0214    0.0556   -0.0296    0.0413    0.0248   -0.0462    0.0222
          35    0.0277    0.0261    0.1121    0.0068   -0.0065    0.0486    0.0319    0.0177
          36    0.0334    0.0156    0.0568   -0.0050   -0.0066    0.0285    0.0084   -0.0144
          37    0.0440   -0.0134    0.0344    0.0077    0.0430    0.0180   -0.0478    0.0057
          38   -0.0131   -0.0169   -0.0155   -0.0152   -0.0163   -0.0074    0.0312    0.0312
          39    0.0321    0.0525    0.1285   -0.0116   -0.0024    0.0587    0.0089   -0.0134
          40   -0.0129    0.0021   -0.0353   -0.0371   -0.0024   -0.0186   -0.0198    0.0111
          41    0.0073   -0.0010    0.0230    0.0015   -0.0251    0.0118    0.0397    0.0069
          42   -0.0605    0.0044   -0.0323   -0.0846    0.0027   -0.0323   -0.0066    0.0504
          43    0.0086    0.0025    0.0023   -0.0426    0.0015   -0.0024   -0.0183    0.0278
          44   -0.0590   -0.0067   -0.0467   -0.0686   -0.0357   -0.0369    0.0422    0.0613
          45   -0.0387    0.0068   -0.0160   -0.0487    0.0064   -0.0164   -0.0081    0.0165
          46    0.0127   -0.0090   -0.0261   -0.0295   -0.0192    0.1416    0.0183    0.0657
          47    0.0140   -0.0192    0.0415    0.0174    0.0410   -0.1194   -0.0295   -0.0221
          48    0.0364   -0.0694   -0.1087    0.0076   -0.0107    0.1092    0.0092   -0.0243
          49    0.0548   -0.0453   -0.0447    0.0121   -0.0174   -0.0684    0.0127    0.0605
          50   -0.0173   -0.0664   -0.0962   -0.0071    0.0354    0.1993   -0.0223   -0.0300
          51    0.0324   -0.0295   -0.0327    0.0005   -0.0087    0.0500    0.0079   -0.0180
          52    0.0412   -0.0214    0.0094    0.0070    0.0248   -0.0892   -0.0339    0.0188
          53    0.0114   -0.0335    0.0179    0.0199    0.0563   -0.0947   -0.0472   -0.0416
          54    0.0723   -0.0234    0.0173    0.0305   -0.0322   -0.1986    0.0324    0.0127
          55    0.0192    0.0550   -0.0214   -0.0356   -0.0477   -0.0058   -0.0266   -0.0602
          56    0.0040    0.0070   -0.0012   -0.0125   -0.0361   -0.0013   -0.0437   -0.0252
          57   -0.0352   -0.0375    0.0070    0.0245   -0.0139    0.0024   -0.0323    0.0207
          58   -0.0304   -0.0437    0.0163   -0.0342    0.0576   -0.0087    0.0611   -0.0589
          59   -0.0129   -0.0297    0.0134   -0.0111    0.0123   -0.0028   -0.0003   -0.0230
          60    0.0296    0.0418   -0.0147    0.0180    0.0179   -0.0012    0.0309    0.0201
          61   -0.0310    0.0461   -0.0102    0.0780   -0.0459    0.0077   -0.0577    0.0280
          62    0.0173    0.0409   -0.0054    0.0324   -0.0014    0.0018   -0.0048    0.0133
          63   -0.0190   -0.0285    0.0028    0.0010   -0.0087   -0.0009   -0.0172    0.0019
          64   -0.0592   -0.0142    0.0137    0.0795    0.0374    0.0060    0.0352    0.0355
          65    0.0079    0.0182    0.0040    0.0326    0.0362    0.0010    0.0382    0.0160
          66    0.0195    0.0190   -0.0101   -0.0026    0.0063   -0.0029    0.0131    0.0008
          67    0.0172   -0.0350    0.0157    0.0401   -0.0458    0.0075    0.0063   -0.0479
          68    0.0222    0.0578   -0.0420    0.0045    0.0631   -0.0009    0.0444   -0.0091
          69   -0.0269    0.0045   -0.0001   -0.0307    0.0034   -0.0085   -0.0160    0.0089
          70    0.0157   -0.0285    0.0124    0.0353   -0.0475    0.0058    0.0382   -0.0414
          71    0.0254    0.0433   -0.0356    0.0143    0.0674    0.0026   -0.0272   -0.0209
          72   -0.0084   -0.0006    0.0010    0.0176   -0.0055    0.0003    0.0093   -0.0406


   Root No.       9        10        11        12        13        14        15        16

                 9 A      10 A      11 A      12 A      13 A      14 A      15 A      16 A   

                 369.5     442.8     496.1     553.4     639.6     659.0     741.4     791.9
  
           1   -0.0086   -0.0144    0.0005    0.0398    0.0123   -0.0204   -0.0184    0.0021
           2   -0.0050   -0.0010   -0.0045    0.0142    0.0033   -0.0171   -0.0055    0.0020
           3   -0.0036    0.0009   -0.0003   -0.0006   -0.0037    0.0101    0.0308    0.0065
           4    0.0005    0.0087   -0.0060   -0.0023   -0.0104    0.0152   -0.0012   -0.0105
           5   -0.0148    0.0275    0.0024   -0.0065    0.0129   -0.0145   -0.0004   -0.0119
           6    0.0199   -0.0182    0.0035   -0.0017   -0.0012    0.0006    0.0018   -0.0232
           7    0.0219   -0.0272    0.0022    0.0075    0.0009    0.0015    0.0140   -0.0070
           8    0.0076   -0.0095    0.0070    0.0040    0.0059   -0.0055    0.0126   -0.0072
           9    0.0337    0.0187   -0.0026   -0.0146   -0.0029    0.0063   -0.0080   -0.0165
          10   -0.0206    0.0351   -0.0082   -0.0045   -0.0089    0.0178   -0.0061   -0.0006
          11    0.0102   -0.0126    0.0004    0.0019    0.0003    0.0025   -0.0008   -0.0009
          12    0.0048   -0.0098    0.0040    0.0012    0.0041   -0.0094    0.0030   -0.0018
          13    0.0000   -0.0181    0.0102    0.0290    0.0132   -0.0566    0.0263    0.0015
          14    0.0001   -0.0253   -0.0196    0.0296   -0.0098    0.0943   -0.0081    0.0049
          15   -0.0094    0.0394   -0.0111    0.0322   -0.0013   -0.0010    0.0056    0.0040
          16   -0.0287   -0.0081   -0.0303   -0.0332   -0.0008   -0.0047   -0.0189   -0.0029
          17   -0.0112    0.0054   -0.0182   -0.0095   -0.0082   -0.0151    0.0193    0.0057
          18   -0.0084   -0.0126    0.0084   -0.0091   -0.0035   -0.0128   -0.0035   -0.0018
          19   -0.0259    0.0015    0.0388   -0.0134    0.0021    0.0185   -0.0023    0.0037
          20   -0.0154   -0.0021    0.0158   -0.0183   -0.0033   -0.0122   -0.0257   -0.0053
          21   -0.0069   -0.0195   -0.0003   -0.0057    0.0064    0.0102   -0.0030    0.0006
          22    0.0032    0.0031    0.0450    0.0089    0.0037    0.0034   -0.0153   -0.0003
          23    0.0006    0.0015    0.0205    0.0038   -0.0019   -0.0033   -0.0037   -0.0006
          24   -0.0154   -0.0173   -0.0050   -0.0204   -0.0037   -0.0152   -0.0114   -0.0044
          25    0.0051   -0.0114   -0.0458    0.0005    0.0020   -0.0088   -0.0113    0.0013
          26    0.0006   -0.0069   -0.0167   -0.0024   -0.0015   -0.0077   -0.0084   -0.0014
          27   -0.0148   -0.0188    0.0156   -0.0149    0.0060    0.0093   -0.0148   -0.0020
          28    0.0463    0.0202   -0.0020   -0.0070   -0.0010   -0.0008    0.0024    0.0011
          29    0.0195    0.0194    0.0024   -0.0030    0.0002   -0.0043    0.0007    0.0016
          30   -0.0084    0.0403   -0.0141    0.0374   -0.0033    0.0087    0.0065    0.0067
          31    0.0046   -0.0311   -0.0198    0.0473    0.0171   -0.0115    0.0031    0.0037
          32    0.0016    0.0042    0.0477    0.0228   -0.0001   -0.0477    0.0125    0.0025
          33    0.0145   -0.0179   -0.0011    0.0138    0.0010    0.0061    0.0633    0.0088
          34    0.0127    0.0138   -0.0093   -0.0068   -0.0183    0.0275   -0.0111    0.0323
          35   -0.0323    0.0243    0.0044   -0.0069    0.0164   -0.0227   -0.0088    0.1797
          36    0.0123   -0.0198    0.0050   -0.0009    0.0025   -0.0056    0.0025    0.0133
          37   -0.0128    0.0122   -0.0117   -0.0072   -0.0190    0.0238   -0.0098    0.0423
          38   -0.0050    0.0268    0.0032   -0.0047    0.0144   -0.0139    0.0058   -0.1029
          39    0.0110   -0.0208    0.0065   -0.0019    0.0021   -0.0066   -0.0046    0.1456
          40    0.0367   -0.0444   -0.0043    0.0217   -0.0136    0.0395    0.0160    0.0567
          41   -0.0211    0.0001    0.0019    0.0336    0.0091   -0.0084    0.0187   -0.0755
          42    0.0865    0.0122    0.0147   -0.0949    0.0032   -0.0207   -0.0236    0.0858
          43    0.0523   -0.0567    0.0095   -0.0308   -0.0122    0.0258    0.0022   -0.0058
          44    0.0638   -0.0124    0.0223   -0.0701    0.0140   -0.0282   -0.0007    0.1266
          45    0.0393    0.0263   -0.0009   -0.0227    0.0022   -0.0059   -0.0080    0.0178
          46   -0.0370    0.0649   -0.0086   -0.0140   -0.0012    0.0106   -0.0107   -0.0443
          47    0.0196   -0.0230    0.0007    0.0042   -0.0026    0.0059    0.0019   -0.0118
          48    0.0015   -0.0187    0.0038    0.0064    0.0024   -0.0093    0.0019    0.0723
          49   -0.0449    0.0660   -0.0101   -0.0065   -0.0022    0.0104   -0.0151    0.0725
          50    0.0093   -0.0238    0.0006    0.0055   -0.0024    0.0050   -0.0006    0.0433
          51    0.0102   -0.0188    0.0044    0.0023    0.0020   -0.0073    0.0049   -0.0084
          52   -0.0017    0.0052   -0.0082    0.0028   -0.0186    0.0292   -0.0016    0.0145
          53    0.0309   -0.0457    0.0007    0.0101   -0.0098    0.0143    0.0044    0.0152
          54   -0.0133    0.0214    0.0030   -0.0025    0.0130   -0.0201   -0.0031    0.0288
          55   -0.0579   -0.0020   -0.0718   -0.1257   -0.0313   -0.0122    0.1175   -0.0038
          56   -0.0256    0.0069   -0.0368   -0.0555   -0.0225   -0.0254    0.0741    0.0044
          57   -0.0061   -0.0164    0.0154   -0.0027    0.0005   -0.0270   -0.0417   -0.0037
          58   -0.0575    0.0062    0.1000   -0.0888   -0.0123    0.1339    0.1131   -0.0055
          59   -0.0275    0.0025    0.0390   -0.0471   -0.0101    0.0317    0.0250   -0.0082
          60   -0.0039   -0.0307   -0.0050    0.0013    0.0129    0.0009   -0.0396   -0.0014
          61    0.0169    0.0252    0.1607    0.0084   -0.0085    0.0403    0.1203   -0.0007
          62    0.0058    0.0047    0.0733    0.0022    0.0002    0.0273    0.0319   -0.0050
          63   -0.0178   -0.0171   -0.0305   -0.0196   -0.0072   -0.0346   -0.0208   -0.0010
          64    0.0200   -0.0261   -0.1603   -0.0325   -0.0139    0.0029    0.1104   -0.0081
          65    0.0089   -0.0138   -0.0631   -0.0083   -0.0021    0.0199    0.0606    0.0017
          66   -0.0169   -0.0166    0.0389   -0.0052    0.0120    0.0175   -0.0308    0.0030
          67    0.0755    0.0528   -0.0193   -0.0464    0.1289    0.0679   -0.0308   -0.0092
          68    0.0272    0.0299    0.0366   -0.0011   -0.2997   -0.1286   -0.0026   -0.0053
          69   -0.0525   -0.0104   -0.0142    0.0902    0.0266    0.0011    0.0541    0.0261
          70    0.0735    0.0398   -0.0005   -0.0234   -0.1506    0.0265   -0.0358   -0.0055
          71    0.0350    0.0617   -0.0064   -0.0492    0.3203   -0.0340    0.0145   -0.0088
          72    0.0371    0.0904   -0.0169   -0.0092   -0.0369    0.0306   -0.0376   -0.0073


   Root No.      17        18        19        20        21        22        23        24

                17 A      18 A      19 A      20 A      21 A      22 A      23 A      24 A   

                 814.6     824.3     835.1     909.2     929.6     940.5     968.8     973.1
  
           1    0.0080   -0.0139    0.0320    0.0092    0.0271    0.0102    0.0097   -0.0052
           2   -0.0138    0.0385    0.0099    0.0038    0.0120    0.0040    0.0041    0.0061
           3    0.0005   -0.0041   -0.0466   -0.0014   -0.0005   -0.0019   -0.0043    0.0005
           4   -0.0007   -0.0010   -0.0035    0.0026   -0.0060    0.0060   -0.0031    0.0000
           5    0.0006    0.0027   -0.0005    0.0064    0.0108   -0.0123    0.0030    0.0000
           6   -0.0013   -0.0002   -0.0058    0.0078   -0.0027    0.0024   -0.0038    0.0001
           7    0.0002    0.0003   -0.0038   -0.0169   -0.0057   -0.0021    0.0118    0.0002
           8   -0.0010   -0.0016   -0.0041   -0.0203   -0.0249    0.0231   -0.0032    0.0008
           9    0.0001    0.0005    0.0059   -0.0227    0.0160   -0.0182   -0.0040    0.0001
          10   -0.0006   -0.0017   -0.0008    0.0049   -0.0121    0.0174   -0.0082   -0.0001
          11    0.0004    0.0004   -0.0001    0.0086    0.0106   -0.0126    0.0091   -0.0005
          12    0.0001    0.0008   -0.0017    0.0127   -0.0020    0.0031    0.0041   -0.0006
          13    0.0046    0.0081   -0.0016   -0.0002   -0.0040   -0.0055    0.0039   -0.0011
          14   -0.0077   -0.0135    0.0023    0.0059    0.0046   -0.0084    0.0003    0.0014
          15    0.0004    0.0005    0.0059    0.0020   -0.0105    0.0040    0.0021    0.0000
          16    0.0309    0.0011    0.0009   -0.0001   -0.0051   -0.0003   -0.0194    0.0011
          17    0.0065    0.0345   -0.0483   -0.0009    0.0278    0.0149   -0.0126   -0.0226
          18    0.0151   -0.0400    0.0048    0.0000    0.0042    0.0019    0.0035   -0.0006
          19   -0.0276   -0.0317   -0.0336    0.0001    0.0176    0.0097   -0.0211    0.0216
          20   -0.0210    0.0271    0.0331   -0.0007   -0.0230   -0.0082   -0.0064   -0.0129
          21   -0.0137    0.0355   -0.0023    0.0000    0.0084    0.0036    0.0030    0.0022
          22    0.0156    0.0276   -0.0138   -0.0019   -0.0091   -0.0048    0.0162    0.0326
          23    0.0341   -0.0492   -0.0086   -0.0004   -0.0045   -0.0030    0.0069    0.0157
          24    0.0239   -0.0576    0.0205    0.0004   -0.0033   -0.0013   -0.0027   -0.0085
          25   -0.0340    0.0129   -0.0157   -0.0031   -0.0083   -0.0066    0.0125   -0.0381
          26    0.0086   -0.0458   -0.0001   -0.0011   -0.0033   -0.0027    0.0055   -0.0141
          27   -0.0275    0.0654    0.0185    0.0002   -0.0037   -0.0007   -0.0021    0.0093
          28    0.0011    0.0015   -0.0007    0.0077   -0.0114   -0.0266   -0.0195   -0.0007
          29   -0.0011   -0.0006    0.0007    0.0058   -0.0025   -0.0136   -0.0086    0.0049
          30   -0.0002   -0.0007    0.0079    0.0048   -0.0174    0.0057    0.0038   -0.0002
          31    0.0316    0.0090    0.0254    0.0090    0.0473    0.0092    0.0310   -0.1180
          32   -0.0641   -0.0087    0.0071    0.0009    0.0210    0.0036    0.0311    0.2539
          33    0.0062    0.0023   -0.0563   -0.0028    0.0293   -0.0024    0.0327   -0.0235
          34    0.0041   -0.0008    0.0131   -0.0938    0.0270   -0.0443   -0.0198    0.0025
          35    0.0100    0.0014    0.0283   -0.0165    0.0034   -0.0003    0.0176   -0.0014
          36   -0.0003   -0.0005   -0.0030    0.0286   -0.0127    0.0182    0.0049   -0.0009
          37   -0.0083   -0.0080    0.0032    0.0848    0.0046    0.0058    0.0330   -0.0016
          38   -0.0014    0.0051   -0.0151    0.0034    0.0077   -0.0117   -0.0104    0.0006
          39    0.0096   -0.0001    0.0225   -0.0638   -0.0078    0.0038   -0.0069    0.0003
          40   -0.0033   -0.0091    0.0044    0.0217   -0.0208    0.0087    0.0632   -0.0029
          41   -0.0012    0.0009   -0.0002   -0.0824   -0.0195    0.0151   -0.0151    0.0022
          42    0.0035    0.0032   -0.0099    0.0847    0.0170   -0.0092   -0.0208   -0.0005
          43   -0.0026   -0.0028   -0.0195    0.0000    0.0051   -0.0132   -0.0031    0.0053
          44    0.0013   -0.0017   -0.0132    0.1040   -0.0405    0.0526    0.0012   -0.0015
          45    0.0017    0.0014    0.0079    0.0039    0.0088   -0.0078    0.0011   -0.0019
          46   -0.0031    0.0010   -0.0077    0.0885    0.0394   -0.0383    0.0403   -0.0035
          47   -0.0007   -0.0006   -0.0048    0.0181   -0.0127    0.0172   -0.0009   -0.0007
          48    0.0054    0.0003    0.0169   -0.1011   -0.0048   -0.0047   -0.0254    0.0034
          49    0.0057    0.0008    0.0254   -0.1020    0.0576   -0.0793    0.0011    0.0031
          50    0.0031   -0.0008    0.0094   -0.0572   -0.0060    0.0019   -0.0163    0.0020
          51   -0.0007    0.0000   -0.0054    0.0228   -0.0207    0.0273   -0.0031   -0.0009
          52   -0.0006   -0.0052   -0.0021   -0.0303   -0.0707    0.0872   -0.0487    0.0016
          53    0.0004   -0.0033   -0.0017   -0.0293   -0.0538    0.0640   -0.0349    0.0014
          54    0.0034    0.0040    0.0130   -0.0288    0.0641   -0.0836    0.0299    0.0002
          55   -0.1869   -0.1503    0.0634   -0.0120   -0.0472   -0.0352    0.0987    0.0580
          56   -0.1006    0.0034   -0.0183   -0.0065    0.0220    0.0082    0.0387   -0.0071
          57    0.0351    0.0630   -0.0005    0.0013    0.0385    0.0267   -0.0209   -0.0331
          58    0.2025    0.1100    0.0215   -0.0046   -0.0157   -0.0192    0.0897   -0.0624
          59    0.0648    0.1074    0.0534   -0.0027   -0.0454   -0.0245    0.0385   -0.0519
          60   -0.0297   -0.0711   -0.0024    0.0012    0.0461    0.0253   -0.0167    0.0371
          61   -0.0948   -0.0685    0.1530    0.0172    0.0787    0.0419   -0.0802   -0.1660
          62   -0.0324   -0.0672    0.1034    0.0084   -0.0113   -0.0064   -0.0251   -0.0229
          63    0.0618   -0.0583   -0.0447   -0.0038    0.0148    0.0082    0.0091   -0.0060
          64    0.0954    0.1055    0.1741    0.0211    0.0382    0.0313   -0.0589    0.1497
          65    0.0404    0.0172    0.0337    0.0099    0.0667    0.0365   -0.0309    0.1132
          66   -0.0637    0.0595   -0.0394   -0.0041    0.0106    0.0026    0.0090   -0.0053
          67   -0.0049   -0.0204    0.0141   -0.0167    0.0297    0.0425    0.0297    0.0048
          68    0.0083    0.0404    0.0038   -0.0118   -0.0055    0.0201    0.0104   -0.0164
          69    0.0015    0.0008   -0.0133    0.0508   -0.0726   -0.1112   -0.0757    0.0071
          70   -0.0048   -0.0011    0.0147   -0.0101    0.0273    0.0335    0.0295    0.0058
          71    0.0080   -0.0028    0.0026   -0.0225   -0.0186    0.0469    0.0176   -0.0190
          72   -0.0034   -0.0056    0.0300   -0.0347    0.0257    0.1222    0.0865   -0.0041


   Root No.      25        26        27        28        29        30        31        32

                25 A      26 A      27 A      28 A      29 A      30 A      31 A      32 A   

                 992.8    1014.8    1017.9    1025.6    1047.0    1082.6    1090.7    1123.6
  
           1   -0.0232   -0.0043   -0.0013    0.0140    0.0064    0.0027    0.0023    0.0057
           2   -0.0091    0.0032    0.0117    0.0081    0.0033   -0.0052    0.0006    0.0025
           3    0.0168   -0.0174    0.0095    0.0194   -0.0014    0.0005   -0.0023   -0.0003
           4   -0.0023   -0.0012    0.0005    0.0002    0.0083   -0.0010   -0.0009    0.0309
           5    0.0023   -0.0030    0.0017   -0.0011    0.0069   -0.0006   -0.0003   -0.0007
           6   -0.0026    0.0009    0.0004    0.0028    0.0180    0.0010    0.0003   -0.0182
           7    0.0278    0.0017   -0.0032   -0.0213    0.0011   -0.0010    0.0011   -0.0065
           8    0.0034    0.0021   -0.0031   -0.0087   -0.0064   -0.0006    0.0003    0.0145
           9   -0.0118    0.0001   -0.0006    0.0096   -0.0399    0.0000   -0.0005   -0.0080
          10   -0.0129    0.0003    0.0014    0.0065   -0.0097    0.0015    0.0008   -0.0257
          11    0.0146    0.0046   -0.0024   -0.0046   -0.0012    0.0010    0.0009   -0.0116
          12    0.0030   -0.0013    0.0003   -0.0027   -0.0130   -0.0008   -0.0003    0.0259
          13    0.0018   -0.0113    0.0046   -0.0050   -0.0048   -0.0016   -0.0011    0.0015
          14   -0.0008    0.0154   -0.0053    0.0169   -0.0003    0.0027   -0.0009    0.0043
          15    0.0048    0.0013   -0.0014   -0.0086    0.0072   -0.0003    0.0005    0.0007
          16    0.0204    0.0052    0.0370   -0.0021   -0.0051   -0.0059    0.0011   -0.0068
          17   -0.0012   -0.0015   -0.0054   -0.0053   -0.0020    0.0181   -0.0095    0.0079
          18   -0.0068    0.0023   -0.0080   -0.0022    0.0012   -0.0105    0.0007    0.0034
          19    0.0130   -0.0048   -0.0207    0.0050   -0.0036   -0.0094   -0.0067    0.0005
          20    0.0158   -0.0176   -0.0231    0.0047   -0.0018    0.0175    0.0079   -0.0099
          21   -0.0083    0.0074    0.0055   -0.0046    0.0008    0.0077   -0.0003    0.0053
          22   -0.0105   -0.0042   -0.0302    0.0011    0.0016   -0.0003    0.0048   -0.0026
          23    0.0008   -0.0092   -0.0066    0.0119    0.0018   -0.0031   -0.0063    0.0086
          24    0.0038   -0.0011    0.0060    0.0021    0.0000   -0.0017    0.0042    0.0033
          25   -0.0067    0.0049    0.0291    0.0004    0.0013    0.0026   -0.0017    0.0047
          26   -0.0077    0.0107    0.0084   -0.0104   -0.0004   -0.0020    0.0081   -0.0072
          27    0.0043   -0.0050   -0.0027    0.0050    0.0000    0.0020    0.0032    0.0047
          28   -0.0099    0.0245   -0.0088    0.0073   -0.0063    0.0011    0.0006   -0.0013
          29   -0.0126   -0.0366    0.0086   -0.0268   -0.0027   -0.0020    0.0005   -0.0015
          30    0.0092    0.0068   -0.0032   -0.0100    0.0212    0.0000    0.0002   -0.0011
          31   -0.0309   -0.0711   -0.0595    0.0944   -0.0017   -0.0297   -0.0180   -0.0572
          32   -0.0227    0.0476    0.2199    0.0197   -0.0123    0.0743   -0.0087   -0.0282
          33    0.0005   -0.0757    0.0321    0.1187   -0.0176   -0.0027   -0.0317   -0.0879
          34   -0.0090    0.0003   -0.0001    0.0113    0.0362   -0.0007   -0.0024    0.1818
          35    0.0129   -0.0006   -0.0010   -0.0108   -0.0679   -0.0014    0.0006   -0.0247
          36    0.0025    0.0010   -0.0002   -0.0030   -0.0082    0.0007    0.0009   -0.0663
          37    0.0118    0.0090   -0.0130    0.0016   -0.0575   -0.0065   -0.0060    0.0999
          38   -0.0052   -0.0076    0.0068    0.0010    0.0493    0.0007    0.0006   -0.0195
          39    0.0000    0.0021    0.0004   -0.0031   -0.0209    0.0029    0.0029   -0.0386
          40    0.1031    0.0361   -0.0259   -0.0632   -0.1192    0.0022    0.0077   -0.0526
          41   -0.0117   -0.0039   -0.0017   -0.0048   -0.0205   -0.0023   -0.0009    0.0263
          42   -0.0416   -0.0159    0.0158    0.0363    0.0955    0.0009   -0.0035    0.0063
          43    0.0382    0.0116   -0.0024   -0.0229    0.2245    0.0016    0.0027   -0.0525
          44   -0.0019   -0.0045    0.0050   -0.0014    0.0506    0.0001   -0.0003    0.0400
          45   -0.0161   -0.0042    0.0011    0.0121   -0.0893   -0.0006   -0.0011    0.0102
          46    0.0503    0.0178   -0.0087   -0.0123   -0.0356    0.0037    0.0030   -0.0239
          47   -0.0026    0.0002    0.0008   -0.0001   -0.0145    0.0009    0.0009   -0.0110
          48   -0.0253   -0.0098    0.0039    0.0068    0.0444   -0.0027   -0.0024    0.0196
          49    0.0205    0.0103   -0.0061    0.0005    0.0717    0.0022    0.0005   -0.0661
          50   -0.0147   -0.0025    0.0016    0.0052    0.0262    0.0004    0.0000   -0.0327
          51   -0.0104   -0.0050    0.0028    0.0007   -0.0263   -0.0011   -0.0004    0.0326
          52   -0.0710   -0.0125    0.0099    0.0248   -0.0136    0.0011    0.0000   -0.0438
          53   -0.0483   -0.0096    0.0071    0.0147   -0.0056    0.0005    0.0001   -0.0318
          54    0.0503    0.0091   -0.0076   -0.0164    0.0288   -0.0009   -0.0004    0.0291
          55   -0.0645   -0.0085   -0.0686    0.0159    0.0161   -0.0136    0.0116   -0.0020
          56   -0.0609    0.0218   -0.0767   -0.0389    0.0057   -0.0693   -0.0791   -0.0087
          57   -0.0384    0.0682   -0.0417   -0.0959   -0.0063   -0.1921   -0.1587   -0.0400
          58   -0.0843    0.0535    0.0660   -0.0359    0.0095    0.0477   -0.0379    0.0023
          59   -0.0087   -0.0158    0.0217    0.0143    0.0043   -0.0133    0.0409    0.0003
          60   -0.0464    0.0794   -0.0458   -0.0968   -0.0048    0.2029   -0.1613   -0.0332
          61    0.0175    0.0294    0.0586   -0.0363   -0.0061    0.0806    0.1073   -0.0060
          62    0.0427   -0.0070    0.0940    0.0364    0.0007   -0.1373   -0.1897    0.0179
          63   -0.0256    0.0019   -0.0614   -0.0225   -0.0002    0.1147    0.1635   -0.0037
          64    0.0444   -0.0486   -0.0937    0.0296   -0.0006    0.0545   -0.0723    0.0092
          65   -0.0222    0.0517   -0.0193   -0.0393   -0.0044   -0.1737    0.2210   -0.0214
          66   -0.0223    0.0345    0.0322   -0.0195   -0.0011   -0.0951    0.1270   -0.0028
          67    0.0004   -0.0793    0.0198   -0.0377   -0.0055   -0.0028    0.0007    0.0061
          68    0.0337    0.1577   -0.0331    0.0953    0.0058    0.0054   -0.0006    0.0040
          69   -0.0360    0.0146   -0.0137   -0.0345    0.0173    0.0001    0.0007   -0.0156
          70    0.0042   -0.0751    0.0228   -0.0402    0.0097   -0.0041   -0.0005   -0.0010
          71    0.0418    0.1533   -0.0409    0.0921    0.0169    0.0084   -0.0011    0.0057
          72    0.0595   -0.0280    0.0138   -0.0116    0.0575   -0.0016   -0.0025    0.0018


   Root No.      33        34        35        36        37        38        39        40

                33 A      34 A      35 A      36 A      37 A      38 A      39 A      40 A   

                1124.5    1133.6    1135.0    1140.3    1203.4    1230.4    1287.2    1311.2
  
           1   -0.0182   -0.0009   -0.0018   -0.0050   -0.0182    0.0051    0.0074   -0.0500
           2   -0.0080   -0.0010   -0.0019    0.0023    0.0379    0.0041    0.0059    0.1124
           3    0.0024    0.0007    0.0005    0.0003   -0.0013   -0.0136    0.0446   -0.0101
           4    0.0160    0.0228   -0.0087   -0.0005    0.0027   -0.0199   -0.0271   -0.0055
           5    0.0024    0.0178   -0.0327    0.0536   -0.0039    0.0101    0.0081    0.0004
           6   -0.0041    0.0245   -0.0226   -0.0428    0.0008    0.0045    0.0084    0.0025
           7   -0.0030    0.0001    0.0045    0.0335    0.0038   -0.0262   -0.0149   -0.0008
           8    0.0051    0.0019    0.0288   -0.0373    0.0003    0.0160   -0.0046    0.0022
           9   -0.0081    0.0018    0.0215    0.0150   -0.0018    0.0076    0.0050    0.0000
          10   -0.0129   -0.0234    0.0009   -0.0124   -0.0004    0.0030    0.0046    0.0000
          11   -0.0064   -0.0218    0.0101   -0.0296    0.0024   -0.0087   -0.0049   -0.0007
          12    0.0094   -0.0284    0.0011    0.0248   -0.0012    0.0025    0.0004    0.0002
          13    0.0018    0.0019   -0.0012   -0.0034    0.0066   -0.0193    0.0305    0.0058
          14    0.0022    0.0021   -0.0035    0.0101   -0.0050   -0.0222    0.0124   -0.0136
          15   -0.0004   -0.0002   -0.0007   -0.0008    0.0006    0.0007    0.0087    0.0012
          16    0.0178    0.0006    0.0025    0.0006    0.0005   -0.0026    0.0045    0.0199
          17   -0.0203    0.0013   -0.0009   -0.0025    0.0005    0.0102   -0.0172   -0.0663
          18   -0.0094   -0.0003   -0.0014    0.0001    0.0179    0.0054   -0.0043   -0.0319
          19   -0.0023    0.0001   -0.0006    0.0014   -0.0005    0.0019   -0.0103    0.0337
          20    0.0256   -0.0006    0.0025   -0.0001   -0.0002   -0.0053    0.0151   -0.0552
          21   -0.0128    0.0006   -0.0009   -0.0007   -0.0188   -0.0001   -0.0076    0.0417
          22    0.0057   -0.0010   -0.0003    0.0007    0.0099   -0.0007    0.0063   -0.0105
          23   -0.0222    0.0007   -0.0017   -0.0010   -0.0163    0.0037   -0.0193    0.0256
          24   -0.0083    0.0004   -0.0005    0.0002    0.0101    0.0053   -0.0101   -0.0037
          25   -0.0117    0.0004   -0.0008   -0.0008    0.0048    0.0045   -0.0089   -0.0111
          26    0.0179   -0.0006    0.0017    0.0000   -0.0179   -0.0084    0.0156    0.0241
          27   -0.0114    0.0006   -0.0006   -0.0007   -0.0085    0.0034   -0.0131    0.0004
          28   -0.0022   -0.0003    0.0012    0.0013   -0.0022    0.0064   -0.0089   -0.0017
          29   -0.0006   -0.0005    0.0023   -0.0044    0.0016    0.0060   -0.0043    0.0040
          30    0.0072   -0.0024    0.0028    0.0021   -0.0002    0.0006   -0.0046   -0.0002
          31    0.0994   -0.0145    0.0086   -0.0009    0.0344    0.0513   -0.0754    0.0535
          32    0.0571   -0.0027    0.0104   -0.0130   -0.0979    0.0169   -0.0378   -0.1158
          33    0.1687   -0.0161    0.0184   -0.0016    0.0008    0.0474   -0.0723    0.0115
          34    0.0822   -0.1486   -0.1010   -0.0670   -0.0153    0.0915    0.0576    0.0133
          35   -0.0211   -0.0259    0.0666    0.1387   -0.0014   -0.0196   -0.0150   -0.0063
          36   -0.0282    0.0633    0.0260   -0.0063    0.0067   -0.0343   -0.0208   -0.0042
          37    0.0382    0.2001    0.1792   -0.0037   -0.0108    0.0991    0.0600    0.0165
          38    0.0017    0.0103   -0.1194    0.0555   -0.0014   -0.0198   -0.0145   -0.0061
          39   -0.0227   -0.1186   -0.0008   -0.0415    0.0067   -0.0344   -0.0199   -0.0033
          40   -0.0111    0.0394   -0.1779   -0.0121   -0.0278    0.1692    0.0058    0.0071
          41    0.0022   -0.0061    0.1048   -0.0234    0.0093   -0.0290   -0.0274    0.0046
          42    0.0055   -0.0103    0.0112    0.0248    0.0062   -0.0623    0.0351   -0.0103
          43   -0.0254   -0.0684    0.1305    0.1068   -0.0277    0.1427    0.0379    0.0013
          44    0.0278    0.0205   -0.0680   -0.0923    0.0109   -0.0400   -0.0305    0.0064
          45    0.0033    0.0268   -0.0366   -0.0189    0.0095   -0.0532   -0.0141   -0.0001
          46   -0.0195   -0.1163    0.0524   -0.1039    0.0044   -0.0008    0.0165    0.0067
          47   -0.0074   -0.0408    0.0024    0.0029    0.0000   -0.0017    0.0013   -0.0002
          48    0.0174    0.1109   -0.0399    0.0451   -0.0014   -0.0048   -0.0202   -0.0062
          49   -0.0204    0.1045   -0.0021   -0.1361    0.0049    0.0049    0.0246    0.0092
          50   -0.0097    0.0542   -0.0179   -0.0124    0.0002    0.0032    0.0080    0.0022
          51    0.0113   -0.0425   -0.0051    0.0566   -0.0027    0.0027   -0.0041   -0.0020
          52   -0.0187    0.0055   -0.0308    0.0391   -0.0076    0.0411    0.0407    0.0086
          53   -0.0128    0.0090   -0.0257    0.0314   -0.0052    0.0288    0.0299    0.0072
          54    0.0163    0.0382    0.0033   -0.0443    0.0062   -0.0324   -0.0352   -0.0072
          55   -0.0091   -0.0113   -0.0079    0.0012    0.0069   -0.0063    0.0084    0.0253
          56    0.0081   -0.0069   -0.0025   -0.0067   -0.0751   -0.0099   -0.0030   -0.0300
          57    0.0871   -0.0052    0.0069   -0.0094   -0.1521   -0.0358    0.0269    0.0400
          58   -0.0034   -0.0009   -0.0020    0.0003    0.0408    0.0043    0.0035    0.0070
          59    0.0000    0.0003    0.0012   -0.0046   -0.0346   -0.0064    0.0127   -0.0444
          60    0.0890   -0.0041    0.0025    0.0148    0.1661    0.0044    0.0277   -0.0348
          61    0.0241    0.0033    0.0052   -0.0009   -0.0553   -0.0098    0.0019    0.0555
          62   -0.0537   -0.0005   -0.0064    0.0001    0.0927    0.0225   -0.0113   -0.0893
          63    0.0171    0.0020    0.0038   -0.0010   -0.0855   -0.0097   -0.0203    0.0961
          64   -0.0233    0.0013   -0.0018   -0.0017   -0.0361   -0.0015   -0.0070    0.0331
          65    0.0540   -0.0030    0.0017    0.0048    0.1161    0.0118    0.0092   -0.1128
          66    0.0076   -0.0007   -0.0003    0.0018    0.0680    0.0158   -0.0197   -0.0784
          67   -0.0112    0.0031   -0.0026   -0.0103    0.0000   -0.0059    0.0627   -0.0043
          68   -0.0031    0.0016   -0.0065    0.0205    0.0041   -0.0145    0.0183    0.0102
          69    0.0232   -0.0089    0.0152    0.0018   -0.0048    0.0307   -0.1275   -0.0010
          70    0.0061   -0.0007    0.0011    0.0035    0.0065   -0.0106   -0.0376    0.0076
          71    0.0067   -0.0002    0.0034    0.0028   -0.0093   -0.0072   -0.0206   -0.0179
          72    0.0263   -0.0037    0.0042    0.0095    0.0059   -0.0292   -0.0640    0.0007


   Root No.      41        42        43        44        45        46        47        48

                41 A      42 A      43 A      44 A      45 A      46 A      47 A      48 A   

                1329.9    1369.0    1388.9    1406.0    1408.7    1411.4    1412.3    1429.0
  
           1   -0.0063   -0.0107    0.0155    0.0028   -0.0001   -0.0004    0.0023   -0.0135
           2   -0.0049   -0.0086    0.0086   -0.0004    0.0001   -0.0007    0.0023   -0.0074
           3   -0.0022   -0.0207    0.0200   -0.0012    0.0003   -0.0062    0.0182   -0.0216
           4   -0.0353   -0.0200    0.0126   -0.0231    0.0005   -0.0037   -0.0072   -0.0324
           5    0.0098   -0.0012   -0.0197    0.0260   -0.0026    0.0067   -0.0019   -0.0149
           6    0.0116    0.0100    0.0037   -0.0021   -0.0006   -0.0016    0.0042    0.0224
           7    0.0090    0.0271   -0.0109    0.0186   -0.0007    0.0070   -0.0129    0.0064
           8   -0.0070   -0.0140   -0.0080   -0.0264    0.0023    0.0016   -0.0143    0.0004
           9   -0.0002   -0.0070    0.0110    0.0049   -0.0009   -0.0038    0.0125   -0.0048
          10    0.0003   -0.0125   -0.0077    0.0099   -0.0154    0.0151    0.0192    0.0387
          11   -0.0061   -0.0080   -0.0029    0.0047   -0.0161   -0.0248   -0.0009    0.0140
          12    0.0028    0.0097    0.0048   -0.0087   -0.0319    0.0051   -0.0084   -0.0245
          13    0.0219   -0.0037   -0.0117   -0.0087    0.0004   -0.0055    0.0127    0.0132
          14    0.0099    0.0025   -0.0068   -0.0013    0.0000   -0.0019    0.0044    0.0052
          15   -0.0189    0.0092   -0.0065   -0.0003    0.0002    0.0011   -0.0032    0.0025
          16    0.0001   -0.0006   -0.0007   -0.0011    0.0001   -0.0011    0.0030   -0.0010
          17    0.0021    0.0046   -0.0005    0.0054   -0.0006    0.0056   -0.0149    0.0088
          18    0.0005   -0.0010    0.0056    0.0067   -0.0007    0.0063   -0.0164    0.0069
          19    0.0008    0.0022   -0.0011    0.0021   -0.0003    0.0030   -0.0081    0.0054
          20    0.0000   -0.0022    0.0005   -0.0028    0.0003   -0.0038    0.0102   -0.0059
          21   -0.0002   -0.0013    0.0056    0.0070   -0.0007    0.0071   -0.0186    0.0081
          22   -0.0007   -0.0050    0.0098    0.0078   -0.0008    0.0067   -0.0170    0.0054
          23    0.0015    0.0131   -0.0244   -0.0185    0.0018   -0.0156    0.0394   -0.0118
          24    0.0010    0.0039   -0.0039    0.0000    0.0000    0.0008   -0.0023    0.0034
          25    0.0008    0.0061   -0.0109   -0.0080    0.0008   -0.0069    0.0173   -0.0051
          26   -0.0020   -0.0124    0.0231    0.0179   -0.0018    0.0155   -0.0392    0.0122
          27    0.0012    0.0059   -0.0076   -0.0029    0.0002   -0.0017    0.0039    0.0014
          28   -0.0038    0.0010    0.0017    0.0015   -0.0001    0.0010   -0.0024   -0.0015
          29   -0.0029    0.0006    0.0000   -0.0001    0.0000    0.0005   -0.0016   -0.0001
          30   -0.0132    0.0144   -0.0123   -0.0005    0.0005    0.0025   -0.0073    0.0073
          31   -0.0237    0.0255   -0.0167    0.0018    0.0000    0.0067   -0.0190    0.0109
          32   -0.0105    0.0159   -0.0095    0.0020   -0.0001    0.0033   -0.0093    0.0056
          33   -0.0270    0.0330   -0.0250   -0.0004    0.0002    0.0044   -0.0133    0.0126
          34    0.0641    0.0522    0.0147   -0.0052    0.0025   -0.0032    0.0119    0.0768
          35   -0.0117    0.0589    0.1291   -0.1327    0.0099   -0.0517    0.0113    0.0942
          36   -0.0215   -0.0020    0.0263   -0.0323    0.0000   -0.0105    0.0006    0.0070
          37    0.0640    0.0209   -0.0460    0.0582   -0.0060    0.0205    0.0043    0.0211
[...]
 T-DIPOLE    0.0420        C  4 --  H 17          +21.0% ( 39.5%)    10.6%
 TRAVEL      0.1762        C  4 --  H 16          +20.9% ( 39.4%)    11.2%
 RED. MASS   0.4103        C  2 --  C  4           +4.8% ( 19.0%)     0.0%
 EFF. MASS   1.5420

 VIBRATION   46   46A       ATOM PAIR        ENERGY CONTRIBUTION    RADIAL
 FREQ.      1411.41        C  4 --  H 17          +31.5% ( 53.2%)     1.5%
 T-DIPOLE    0.0654        C  4 --  H 16          +31.3% ( 53.0%)     1.5%
 TRAVEL      0.1470        C  4 --  H 18           +7.6% ( 26.1%)    49.6%
 RED. MASS   0.3401        C  8 --  C  9           +4.6% ( 20.4%)   100.0%
 EFF. MASS   2.2120

 VIBRATION   47   47A       ATOM PAIR        ENERGY CONTRIBUTION    RADIAL
 FREQ.      1412.28        C  8 --  C  9          +17.4% ( 59.9%)   100.0%
 T-DIPOLE    0.2109        C  7 --  C  8           +7.6% ( 39.5%)   100.0%
 TRAVEL      0.0809        C  6 --  C  9           +7.6% ( 39.5%)    99.9%
 RED. MASS   0.8296        C  7 --  C  9           +7.3% ( 38.8%)     0.0%
 EFF. MASS   7.3040

 VIBRATION   48   48A       ATOM PAIR        ENERGY CONTRIBUTION    RADIAL
 FREQ.      1428.99        C  2 --  C  4          +16.8% ( 54.1%)   100.0%
 T-DIPOLE    0.0672        C  4 --  H 16          +11.7% ( 45.1%)     3.6%
 TRAVEL      0.0893        C  4 --  H 17          +11.6% ( 44.9%)     3.5%
 RED. MASS   0.7933        C  4 --  H 18          +10.6% ( 43.0%)     4.1%
 EFF. MASS   5.9202

 VIBRATION   49   49A       ATOM PAIR        ENERGY CONTRIBUTION    RADIAL
 FREQ.      1463.38        C  1 --  C  5          +21.4% ( 71.7%)    96.6%
 T-DIPOLE    0.0685        C  3 --  C  5          +19.8% ( 68.9%)    87.2%
 TRAVEL      0.0660        C  5 --  C 10           +9.8% ( 48.6%)     0.3%
 RED. MASS   2.7573        C  1 --  C  6           +7.4% ( 42.1%)    39.7%
 EFF. MASS  10.5902

 VIBRATION   50   50A       ATOM PAIR        ENERGY CONTRIBUTION    RADIAL
 FREQ.      1730.23        C  6 --  C  8          +18.2% ( 72.7%)    99.9%
 T-DIPOLE    0.3176        C  7 --  C  9          +18.1% ( 72.5%)    99.9%
 TRAVEL      0.0569        C  6 --  C  9          +10.7% ( 55.6%)    25.7%
 RED. MASS   2.7125        C  7 --  C  8          +10.7% ( 55.6%)    25.6%
 EFF. MASS  12.0242

 VIBRATION   51   51A       ATOM PAIR        ENERGY CONTRIBUTION    RADIAL
 FREQ.      1786.94        C  7 --  C  9          +18.0% ( 70.3%)    99.8%
 T-DIPOLE    0.3154        C  6 --  C  8          +17.8% ( 70.0%)    99.8%
 TRAVEL      0.0565        C  8 --  C  9          +12.2% ( 57.9%)     0.0%
 RED. MASS   2.6868        C  6 --  C  9          +10.9% ( 54.7%)    65.0%
 EFF. MASS  11.8007        C  7 --  C  8          +10.9% ( 54.7%)    66.2%

 VIBRATION   52   52A       ATOM PAIR        ENERGY CONTRIBUTION    RADIAL
 FREQ.      1869.80        C  5 --  C 10          +44.8% ( 98.7%)   100.0%
 T-DIPOLE    0.3332        C  1 --  C  5          +16.9% ( 60.7%)    33.5%
 TRAVEL      0.0552        C  3 --  C  5          +16.8% ( 60.4%)    32.0%
 RED. MASS   5.5239        C 10 --  H 23          +10.2% ( 47.1%)    11.5%
 EFF. MASS  11.8260        C 10 --  H 24          +10.1% ( 47.0%)    11.8%

 VIBRATION   53   53A       ATOM PAIR        ENERGY CONTRIBUTION    RADIAL
 FREQ.      2872.30        C  1 --  H 11          +96.8% (100.0%)   100.0%
 T-DIPOLE    0.2090        C  1 --  C  5           +1.0% ( 10.4%)    11.5%
 TRAVEL      0.1276        C  1 --  C  6           +1.0% ( 10.4%)     9.5%
 RED. MASS   0.9294        C  1 --  C  7           +1.0% ( 10.4%)     9.6%
 EFF. MASS   1.4418

 VIBRATION   54   54A       ATOM PAIR        ENERGY CONTRIBUTION    RADIAL
 FREQ.      2940.49        C  3 --  H 15          +31.2% ( 58.2%)    96.7%
 T-DIPOLE    0.0578        C  3 --  H 14          +28.7% ( 55.9%)    96.1%
 TRAVEL      0.1213        C  2 --  H 13          +20.6% ( 47.3%)    96.9%
 RED. MASS   0.2739        C  2 --  H 12          +16.8% ( 42.8%)    95.7%
 EFF. MASS   1.5582

 VIBRATION   55   55A       ATOM PAIR        ENERGY CONTRIBUTION    RADIAL
 FREQ.      2954.18        C  2 --  H 13          +33.7% ( 60.1%)    97.3%
 T-DIPOLE    0.0746        C  2 --  H 12          +26.4% ( 53.2%)    95.9%
 TRAVEL      0.1220        C  3 --  H 15          +19.9% ( 46.2%)    97.0%
 RED. MASS   0.2749        C  3 --  H 14          +17.7% ( 43.5%)    96.3%
 EFF. MASS   1.5345

 VIBRATION   56   56A       ATOM PAIR        ENERGY CONTRIBUTION    RADIAL
 FREQ.      3021.47        C  3 --  H 14          +49.5% ( 69.4%)    97.9%
 T-DIPOLE    0.0731        C  3 --  H 15          +44.3% ( 65.6%)    97.3%
 TRAVEL      0.1323        C  2 --  H 12           +2.8% ( 16.6%)    98.6%
 RED. MASS   0.4399        C  2 --  H 13           +2.0% ( 14.0%)    96.8%
 EFF. MASS   1.2750

 VIBRATION   57   57A       ATOM PAIR        ENERGY CONTRIBUTION    RADIAL
 FREQ.      3028.21        C  2 --  H 12          +52.4% ( 71.3%)    98.3%
 T-DIPOLE    0.0470        C  2 --  H 13          +41.0% ( 63.1%)    96.9%
 TRAVEL      0.1322        C  3 --  H 14           +2.4% ( 15.4%)    97.4%
 RED. MASS   0.4394        C  3 --  H 15           +2.4% ( 15.3%)    97.4%
 EFF. MASS   1.2734

 VIBRATION   58   58A       ATOM PAIR        ENERGY CONTRIBUTION    RADIAL
 FREQ.      3078.38        C  4 --  H 16          +52.1% ( 74.4%)    97.5%
 T-DIPOLE    0.0075        C  4 --  H 17          +45.6% ( 69.7%)    96.5%
 TRAVEL      0.1208        C  4 --  H 18           +1.1% ( 10.7%)     4.0%
 RED. MASS   0.5071        C  2 --  C  4           +1.0% ( 10.2%)     0.0%
 EFF. MASS   1.5012

 VIBRATION   59   59A       ATOM PAIR        ENERGY CONTRIBUTION    RADIAL
 FREQ.      3084.21        C  4 --  H 18          +61.7% ( 81.0%)    98.7%
 T-DIPOLE    0.0037        C  4 --  H 17          +21.4% ( 47.7%)    88.1%
 TRAVEL      0.1206        C  4 --  H 16          +15.4% ( 40.5%)    82.7%
 RED. MASS   0.4789        C  2 --  C  4           +1.0% ( 10.3%)     0.0%
 EFF. MASS   1.5032

 VIBRATION   60   60A       ATOM PAIR        ENERGY CONTRIBUTION    RADIAL
 FREQ.      3131.44        C  8 --  H 21          +47.3% ( 70.5%)   100.0%
 T-DIPOLE    0.1698        C  6 --  H 19          +24.9% ( 51.1%)   100.0%
 TRAVEL      0.1204        C  9 --  H 22          +19.0% ( 44.7%)   100.0%
 RED. MASS   0.3287        C  7 --  H 20           +4.5% ( 21.8%)   100.0%
 EFF. MASS   1.4844

 VIBRATION   61   61A       ATOM PAIR        ENERGY CONTRIBUTION    RADIAL
 FREQ.      3134.05        C  9 --  H 22          +48.7% ( 71.4%)   100.0%
 T-DIPOLE    0.4887        C  7 --  H 20          +22.5% ( 48.5%)   100.0%
 TRAVEL      0.1207        C  6 --  H 19          +15.5% ( 40.3%)   100.0%
 RED. MASS   0.3240        C  8 --  H 21           +9.2% ( 31.0%)   100.0%
 EFF. MASS   1.4765

 VIBRATION   62   62A       ATOM PAIR        ENERGY CONTRIBUTION    RADIAL
 FREQ.      3137.78        C 10 --  H 23          +83.3% ( 93.2%)    99.5%
 T-DIPOLE    0.2202        C 10 --  H 24          +15.4% ( 40.1%)    86.4%
 TRAVEL      0.1170        C  5 --  C 10           +1.3% ( 11.8%)    10.8%
 RED. MASS   0.7424
 EFF. MASS   1.5711

 VIBRATION   63   63A       ATOM PAIR        ENERGY CONTRIBUTION    RADIAL
 FREQ.      3139.96        C 10 --  H 24          +84.4% ( 92.2%)    99.0%
 T-DIPOLE    0.2955        C 10 --  H 23          +14.1% ( 37.7%)    73.3%
 TRAVEL      0.1229        C  5 --  C 10           +1.5% ( 12.3%)    80.8%
 RED. MASS   0.7088
 EFF. MASS   1.4222

 VIBRATION   64   64A       ATOM PAIR        ENERGY CONTRIBUTION    RADIAL
 FREQ.      3146.15        C  6 --  H 19          +36.7% ( 62.2%)    99.9%
 T-DIPOLE    0.5770        C  7 --  H 20          +30.9% ( 57.2%)   100.0%
 TRAVEL      0.1159        C  8 --  H 21          +21.2% ( 47.4%)    99.9%
 RED. MASS   0.2912        C  9 --  H 22           +5.5% ( 24.1%)    99.6%
 EFF. MASS   1.5946

 VIBRATION   65   65A       ATOM PAIR        ENERGY CONTRIBUTION    RADIAL
 FREQ.      3156.07        C  7 --  H 20          +36.7% ( 62.4%)    99.9%
 T-DIPOLE    0.2185        C  9 --  H 22          +21.8% ( 48.1%)    99.9%
 TRAVEL      0.1123        C  6 --  H 19          +17.7% ( 43.3%)    99.9%
 RED. MASS   0.2611        C  8 --  H 21          +17.1% ( 42.6%)   100.0%
 EFF. MASS   1.6954

 VIBRATION   66   66A       ATOM PAIR        ENERGY CONTRIBUTION    RADIAL
 FREQ.      3181.03        C  4 --  H 18          +36.5% ( 58.1%)    97.6%
 T-DIPOLE    0.0161        C  4 --  H 17          +31.9% ( 54.3%)    96.9%
 TRAVEL      0.1366        C  4 --  H 16          +31.3% ( 53.8%)    96.8%
 RED. MASS   0.3283        C  2 --  C  4           +0.3% (  5.1%)    99.6%
 EFF. MASS   1.1368

 SYMMETRY NUMBER FOR POINT-GROUP C1  =  1


          SYSTEM IS A GROUND STATE


    NULL



          MOLECULE IS NOT LINEAR

          THERE ARE 66 GENUINE VIBRATIONS IN THIS SYSTEM
          THIS THERMODYNAMICS CALCULATION IS LIMITED TO
          MOLECULES WHICH HAVE NO INTERNAL ROTATIONS




                    CALCULATED THERMODYNAMIC PROPERTIES
                                          *
   TEMP. (K)   PARTITION FUNCTION   H.O.F.    ENTHALPY  HEAT CAPACITY ENTROPY
                                   KCAL/MOL   CAL/MOLE    CAL/K/MOL  CAL/K/MOL


 298.00  VIB.     0.1050D+04                  4664.7790    32.8748    29.4780
         ROT.     0.7229D+06                   888.2813     2.9808    29.7902
         INT.     0.7591D+09                  5553.0603    35.8556    59.2682
         TRA.     0.1503D+28                  1480.4688     4.9680    40.5931
         TOT.                       34.378    7033.5291    40.8236    99.8613

 200.00  VIB.     0.8102D+02                  2070.3612    20.4886    19.0850
         ROT.     0.3974D+06                   596.1620     2.9808    28.6015
         INT.     0.3220D+08                  2666.5232    23.4694    47.6865
         TRA.     0.8266D+27                   993.6033     4.9680    38.6119
         TOT.                       31.005    3660.1264    28.4375    86.2985

 210.00  VIB.     0.1051D+03                  2280.8618    21.6180    20.1118
         ROT.     0.4276D+06                   625.9700     2.9808    28.7469
         INT.     0.4495D+08                  2906.8318    24.5988    48.8588
         TRA.     0.8893D+27                  1043.2834     4.9680    38.8543
         TOT.                       31.295    3950.1152    29.5668    87.7131

 220.00  VIB.     0.1364D+03                  2502.8502    22.7859    21.1443
         ROT.     0.4585D+06                   655.7781     2.9808    28.8856
         INT.     0.6253D+08                  3158.6283    25.7668    50.0299
         TRA.     0.9536D+27                  1092.9636     4.9680    39.0854
         TOT.                       31.596    4251.5919    30.7348    89.1153

 230.00  VIB.     0.1769D+03                  2736.7023    23.9903    22.1836
         ROT.     0.4901D+06                   685.5862     2.9808    29.0181
         INT.     0.8671D+08                  3422.2886    26.9711    51.2017
         TRA.     0.1019D+28                  1142.6437     4.9680    39.3063
         TOT.                       31.909    4564.9323    31.9392    90.5080

 240.00  VIB.     0.2295D+03                  2982.7688    25.2283    23.2307
         ROT.     0.5225D+06                   715.3943     2.9808    29.1450
         INT.     0.1199D+09                  3698.1632    28.2091    52.3757
         TRA.     0.1087D+28                  1192.3239     4.9680    39.5177
         TOT.                       32.235    4890.4871    33.1771    91.8934

 250.00  VIB.     0.2979D+03                  3241.3685    26.4963    24.2862
         ROT.     0.5555D+06                   745.2024     2.9808    29.2667
         INT.     0.1655D+09                  3986.5710    29.4772    53.5528
         TRA.     0.1155D+28                  1242.0041     4.9680    39.7205
         TOT.                       32.573    5228.5750    34.4452    93.2733

 260.00  VIB.     0.3868D+03                  3512.7832    27.7906    25.3505
         ROT.     0.5891D+06                   775.0105     2.9808    29.3836
         INT.     0.2279D+09                  4287.7937    30.7714    54.7341
         TRA.     0.1225D+28                  1291.6842     4.9680    39.9154
         TOT.                       32.924    5579.4779    35.7394    94.6494

 270.00  VIB.     0.5026D+03                  3797.2546    29.1070    26.4239
         ROT.     0.6234D+06                   804.8186     2.9808    29.4961
         INT.     0.3133D+09                  4602.0733    32.0878    55.9200
         TRA.     0.1297D+28                  1341.3644     4.9680    40.1029
         TOT.                       33.288    5943.4376    37.0558    96.0229

 280.00  VIB.     0.6535D+03                  4094.9829    30.4413    27.5066
         ROT.     0.6584D+06                   834.6267     2.9808    29.6045
         INT.     0.4302D+09                  4929.6096    33.4221    57.1110
         TRA.     0.1369D+28                  1391.0445     4.9680    40.2835
         TOT.                       33.665    6320.6541    38.3901    97.3946

 290.00  VIB.     0.8502D+03                  4406.1260    31.7893    28.5983
         ROT.     0.6940D+06                   864.4348     2.9808    29.7091
         INT.     0.5900D+09                  5270.5608    34.7701    58.3073
         TRA.     0.1443D+28                  1440.7247     4.9680    40.4579
         TOT.                       34.056    6711.2855    39.7381    98.7652

 300.00  VIB.     0.1107D+04                  4730.8007    33.1469    29.6988
         ROT.     0.7302D+06                   894.2429     2.9808    29.8101
         INT.     0.8084D+09                  5625.0436    36.1277    59.5090
         TRA.     0.1518D+28                  1490.4049     4.9680    40.6263
         TOT.                       34.460    7115.4485    41.0958   100.1353

 310.00  VIB.     0.1443D+04                  5069.0838    34.5103    30.8079
         ROT.     0.7670D+06                   924.0510     2.9808    29.9079
         INT.     0.1107D+10                  5993.1348    37.4912    60.7158
         TRA.     0.1595D+28                  1540.0850     4.9680    40.7892
         TOT.                       34.878    7533.2199    42.4592   101.5050

 320.00  VIB.     0.1883D+04                  5421.0145    35.8759    31.9252
         ROT.     0.8044D+06                   953.8591     2.9808    30.0025
         INT.     0.1514D+10                  6374.8736    38.8567    61.9277
         TRA.     0.1673D+28                  1589.7652     4.9680    40.9469
         TOT.                       35.309    7964.6388    43.8247   102.8746

 330.00  VIB.     0.2459D+04                  5786.5965    37.2401    33.0500
         ROT.     0.8424D+06                   983.6672     2.9808    30.0942
         INT.     0.2071D+10                  6770.2638    40.2209    63.1442
         TRA.     0.1752D+28                  1639.4454     4.9680    41.0998
         TOT.                       35.754    8409.7091    45.1889   104.2440

 340.00  VIB.     0.3214D+04                  6165.8014    38.5999    34.1819
         ROT.     0.8810D+06                  1013.4753     2.9808    30.1832
         INT.     0.2831D+10                  7179.2767    41.5807    64.3652
         TRA.     0.1832D+28                  1689.1255     4.9680    41.2481
         TOT.                       36.213    8868.4023    46.5488   105.6133

 350.00  VIB.     0.4206D+04                  6558.5710    39.9526    35.3204
         ROT.     0.9201D+06                  1043.2834     2.9808    30.2696
         INT.     0.3870D+10                  7601.8545    42.9334    65.5900
         TRA.     0.1914D+28                  1738.8057     4.9680    41.3921
         TOT.                       36.685    9340.6601    47.9014   106.9821

 360.00  VIB.     0.5509D+04                  6964.8208    41.2956    36.4647
         ROT.     0.9598D+06                  1073.0915     2.9808    30.3536
         INT.     0.5288D+10                  8037.9124    44.2764    66.8183
         TRA.     0.1996D+28                  1788.4859     4.9680    41.5321
         TOT.                       37.171    9826.3982    49.2444   108.3504

 370.00  VIB.     0.7223D+04                  7384.4427    42.6267    37.6144
         ROT.     0.1000D+07                  1102.8996     2.9808    30.4353
         INT.     0.7224D+10                  8487.3423    45.6075    68.0496
         TRA.     0.2080D+28                  1838.1660     4.9680    41.6682
         TOT.                       37.670   10325.5084    50.5755   109.7178

 380.00  VIB.     0.9480D+04                  7817.3080    43.9440    38.7687
         ROT.     0.1041D+07                  1132.7077     2.9808    30.5148
         INT.     0.9868D+10                  8950.0158    46.9248    69.2834
         TRA.     0.2165D+28                  1887.8462     4.9680    41.8007
         TOT.                       38.182   10837.8619    51.8928   111.0841

 390.00  VIB.     0.1246D+05                  8263.2703    45.2458    39.9270
         ROT.     0.1082D+07                  1162.5158     2.9808    30.5922
         INT.     0.1348D+11                  9425.7861    48.2266    70.5192
         TRA.     0.2251D+28                  1937.5263     4.9680    41.9297
         TOT.                       38.708   11363.3125    53.1946   112.4489

 400.00  VIB.     0.1638D+05                  8722.1679    46.5308    41.0888
         ROT.     0.1124D+07                  1192.3239     2.9808    30.6676
         INT.     0.1841D+11                  9914.4918    49.5116    71.7564
         TRA.     0.2338D+28                  1987.2065     4.9680    42.0555
         TOT.                       39.246   11901.6983    54.4796   113.8119

   *: NOTE: HEATS OF FORMATION ARE RELATIVE TO THE
            ELEMENTS IN THEIR STANDARD STATE AT 298K
              (=  Standard Enthalpy of Formation).

            Hvib:  Zero-point energy is not included.
                   frequencies of less than zero cm-1 are not included.
            Hrot = (3/2)RT
            Htra = (3/2)RT + pV = (5/2)RT

            Heat capacity is Cp, not Cv

           For more information, see: HTTP://OpenMOPAC.net/Manual/thermochemistry.html


           FORCE CONSTANT IN CARTESIAN COORDINATES (Millidynes/A)

    ATOM   CHEMICAL       X               Y               Z
   NUMBER   SYMBOL  FORCE CONSTANT  FORCE CONSTANT  FORCE CONSTANT

      1       C        8.292727        7.653617       10.089997
      2       C        8.297294        8.197763        8.304728
      3       C        8.490359        8.101466        8.658911
      4       C        8.406171        8.282801        8.218733
      5       C        8.450632        4.080290       15.254179
      6       C        4.466932        9.403988       12.786614
      7       C        3.736458       11.002746       11.945946
      8       C        3.677333        9.120958       14.617942
      9       C        3.745354        8.945051       14.727317
     10       C        8.044812        3.259942       15.316638
     11       H        2.767793        0.889626        2.193002
     12       H        1.040334        0.854622        4.495643
     13       H        1.251023        3.728414        1.392840
     14       H        1.196920        3.725908        1.439330
     15       H        1.054313        0.862790        4.445162
     16       H        1.346204        3.989811        1.440142
     17       H        1.021356        0.827551        4.930749
     18       H        3.096264        3.012746        0.685755
     19       H        1.304026        3.793591        1.364936
     20       H        0.902038        4.596364        0.966938
     21       H        0.468887        2.433593        3.556018
     22       H        0.935112        1.359638        4.165433
     23       H        3.328902        1.089787        2.044085
     24       H        3.523478        0.848741        2.099474



 TOTAL CPU TIME:             3.82 SECONDS

 == MOPAC DONE ==
