 *******************************************************************************
 ** Site#: 14399           For non-commercial use only        Version 13.159M **
 *******************************************************************************
 ** Cite this work as: MOPAC2012, James J. P. Stewart, Stewart Computational  **
 ** Chemistry, Version 13.159M web: HTTP://OpenMOPAC.net  Days remaining:   6 **
 *******************************************************************************
 **                                                                           **
 **                                MOPAC2012                                  **
 **                                                                           **
 *******************************************************************************

                            PM3 CALCULATION RESULTS


 *******************************************************************************
 *  CALCULATION DONE:                                Mon Jun  2 11:03:50 2014  *
 *  PM3      - The PM3 Hamiltonian to be used
 *  PRECISE  - CRITERIA TO BE INCREASED BY 100 TIMES
 *  NOSYM    - POINT-GROUP SYMMETRY SET TO C1
 *  T=       - A TIME OF 172800.0 SECONDS REQUESTED
 *  DUMP=N   - RESTART FILE WRITTEN EVERY  7200.000 SECONDS
 *******************************************************************************
pm3  precise nosym
 InChI=1S/C12H20/c1-3-5-7-11-9-10-12(11)8-6-4-2/h5-8,11-12H,3-4,9-10H2,1-2H3

   ATOM   CHEMICAL          X               Y               Z
  NUMBER   SYMBOL      (ANGSTROMS)     (ANGSTROMS)     (ANGSTROMS)
 
     1       C          0.79830000  *   1.66220000  *   0.49920000  *
     2       C         -0.43990000  *   1.45200000  *  -0.37430000  *
     3       C          0.74970000  *   3.17330000  *   0.10920000  *
     4       C         -0.61400000  *   2.92660000  *  -0.52130000  *
     5       C          3.33410000  *  -1.16180000  *  -0.27470000  *
     6       C         -3.25990000  *  -1.04010000  *   0.58150000  *
     7       C          3.21640000  *  -2.66380000  *  -0.04440000  *
     8       C         -3.76640000  *  -2.27840000  *  -0.14860000  *
     9       C          2.02450000  *   0.91620000  *   0.04680000  *
    10       C         -1.56880000  *   0.75170000  *   0.33710000  *
    11       C          2.11100000  *  -0.41380000  *   0.17470000  *
    12       C         -2.14470000  *  -0.35260000  *  -0.15480000  *
    13       H          0.62180000  *   1.53500000  *   1.59510000  *
    14       H         -0.19170000  *   0.99470000  *  -1.36470000  *
    15       H          1.50670000  *   3.48300000  *  -0.64990000  *
    16       H          0.71370000  *   3.85390000  *   0.99130000  *
    17       H         -1.43250000  *   3.36900000  *   0.09600000  *
    18       H         -0.67080000  *   3.26480000  *  -1.58240000  *
    19       H          3.49970000  *  -0.97920000  *  -1.36180000  *
    20       H          4.22360000  *  -0.78300000  *   0.28020000  *
    21       H         -4.10900000  *  -0.32990000  *   0.71240000  *
    22       H         -2.90250000  *  -1.34350000  *   1.59290000  *
    23       H          2.35530000  *  -3.08490000  *  -0.61220000  *
    24       H          4.14330000  *  -3.17320000  *  -0.39280000  *
    25       H          3.08370000  *  -2.88900000  *   1.03860000  *
    26       H         -4.58880000  *  -2.75110000  *   0.43480000  *
    27       H         -2.95120000  *  -3.02840000  *  -0.26820000  *
    28       H         -4.16490000  *  -2.00990000  *  -1.15380000  *
    29       H          1.27430000  *  -0.96310000  *   0.60880000  *
    30       H          2.85850000  *   1.47160000  *  -0.38220000  *
    31       H         -1.79730000  *  -0.76450000  *  -1.10280000  *
    32       H         -1.91200000  *   1.15610000  *   1.29020000  *
 


          CARTESIAN COORDINATES 

    NO.       ATOM         X         Y         Z

     1         C        0.7983    1.6622    0.4992
     2         C       -0.4399    1.4520   -0.3743
     3         C        0.7497    3.1733    0.1092
     4         C       -0.6140    2.9266   -0.5213
     5         C        3.3341   -1.1618   -0.2747
     6         C       -3.2599   -1.0401    0.5815
     7         C        3.2164   -2.6638   -0.0444
     8         C       -3.7664   -2.2784   -0.1486
     9         C        2.0245    0.9162    0.0468
    10         C       -1.5688    0.7517    0.3371
    11         C        2.1110   -0.4138    0.1747
    12         C       -2.1447   -0.3526   -0.1548
    13         H        0.6218    1.5350    1.5951
    14         H       -0.1917    0.9947   -1.3647
    15         H        1.5067    3.4830   -0.6499
    16         H        0.7137    3.8539    0.9913
    17         H       -1.4325    3.3690    0.0960
    18         H       -0.6708    3.2648   -1.5824
    19         H        3.4997   -0.9792   -1.3618
    20         H        4.2236   -0.7830    0.2802
    21         H       -4.1090   -0.3299    0.7124
    22         H       -2.9025   -1.3435    1.5929
    23         H        2.3553   -3.0849   -0.6122
    24         H        4.1433   -3.1732   -0.3928
    25         H        3.0837   -2.8890    1.0386
    26         H       -4.5888   -2.7511    0.4348
    27         H       -2.9512   -3.0284   -0.2682
    28         H       -4.1649   -2.0099   -1.1538
    29         H        1.2743   -0.9631    0.6088
    30         H        2.8585    1.4716   -0.3822
    31         H       -1.7973   -0.7645   -1.1028
    32         H       -1.9120    1.1561    1.2902

  H: (PM3): J. J. P. STEWART, J. COMP. CHEM. 10, 209 (1989).
  C: (PM3): J. J. P. STEWART, J. COMP. CHEM. 10, 209 (1989).

           Empirical Formula: C12 H20  =    32 atoms



      MOLECULAR POINT GROUP   :   C1  


      RHF CALCULATION, NO. OF DOUBLY OCCUPIED LEVELS =   34

      Geometry optimization using EF

          DIAGONAL MATRIX USED AS START HESSIAN

 CYCLE:     1 TIME:   0.020 TIME LEFT:  2.00D  GRAD.:   114.629 HEAT: 11.24346
 CYCLE:     2 TIME:   0.029 TIME LEFT:  2.00D  GRAD.:    98.764 HEAT: 9.017773
 CYCLE:     3 TIME:   0.027 TIME LEFT:  2.00D  GRAD.:    58.195 HEAT: 6.963383
 CYCLE:     4 TIME:   0.027 TIME LEFT:  2.00D  GRAD.:    40.283 HEAT: 6.300099
 CYCLE:     5 TIME:   0.014 TIME LEFT:  2.00D  GRAD.:    33.229 HEAT: 5.856495
 CYCLE:     6 TIME:   0.014 TIME LEFT:  2.00D  GRAD.:    41.551 HEAT: 5.549510
 CYCLE:     7 TIME:   0.016 TIME LEFT:  2.00D  GRAD.:    45.023 HEAT: 5.438115
 CYCLE:     8 TIME:   0.016 TIME LEFT:  2.00D  GRAD.:    51.107 HEAT: 5.390807
 CYCLE:     9 TIME:   0.025 TIME LEFT:  2.00D  GRAD.:    26.553 HEAT: 4.915166
 CYCLE:    10 TIME:   0.025 TIME LEFT:  2.00D  GRAD.:    16.051 HEAT: 4.801477
 CYCLE:    11 TIME:   0.025 TIME LEFT:  2.00D  GRAD.:     7.869 HEAT: 4.750940
 CYCLE:    12 TIME:   0.014 TIME LEFT:  2.00D  GRAD.:    11.046 HEAT: 4.740889
 CYCLE:    13 TIME:   0.014 TIME LEFT:  2.00D  GRAD.:    10.422 HEAT: 4.719100
 CYCLE:    14 TIME:   0.015 TIME LEFT:  2.00D  GRAD.:    10.890 HEAT: 4.706551
 CYCLE:    15 TIME:   0.026 TIME LEFT:  2.00D  GRAD.:     5.038 HEAT: 4.677483
 CYCLE:    16 TIME:   0.014 TIME LEFT:  2.00D  GRAD.:     7.622 HEAT: 4.673911
 CYCLE:    17 TIME:   0.014 TIME LEFT:  2.00D  GRAD.:     4.235 HEAT: 4.651008
 CYCLE:    18 TIME:   0.028 TIME LEFT:  2.00D  GRAD.:     5.790 HEAT: 4.646890
 CYCLE:    19 TIME:   0.014 TIME LEFT:  2.00D  GRAD.:     3.329 HEAT: 4.631732
 CYCLE:    20 TIME:   0.014 TIME LEFT:  2.00D  GRAD.:     6.797 HEAT: 4.622714
 CYCLE:    21 TIME:   0.014 TIME LEFT:  2.00D  GRAD.:     5.951 HEAT: 4.603243
 CYCLE:    22 TIME:   0.013 TIME LEFT:  2.00D  GRAD.:     9.674 HEAT: 4.598868
 CYCLE:    23 TIME:   0.013 TIME LEFT:  2.00D  GRAD.:     8.983 HEAT: 4.575868
 CYCLE:    24 TIME:   0.037 TIME LEFT:  2.00D  GRAD.:     4.578 HEAT: 4.558074
 CYCLE:    25 TIME:   0.013 TIME LEFT:  2.00D  GRAD.:     3.141 HEAT: 4.548836
 CYCLE:    26 TIME:   0.014 TIME LEFT:  2.00D  GRAD.:     3.265 HEAT: 4.539059
 CYCLE:    27 TIME:   0.014 TIME LEFT:  2.00D  GRAD.:     3.012 HEAT: 4.526399
 CYCLE:    28 TIME:   0.014 TIME LEFT:  2.00D  GRAD.:     3.535 HEAT: 4.505763
 CYCLE:    29 TIME:   0.014 TIME LEFT:  2.00D  GRAD.:     4.030 HEAT: 4.484387
 CYCLE:    30 TIME:   0.015 TIME LEFT:  2.00D  GRAD.:     6.879 HEAT: 4.477055
 CYCLE:    31 TIME:   0.037 TIME LEFT:  2.00D  GRAD.:     6.450 HEAT: 4.470316
 CYCLE:    32 TIME:   0.014 TIME LEFT:  2.00D  GRAD.:     4.402 HEAT: 4.459904
 CYCLE:    33 TIME:   0.014 TIME LEFT:  2.00D  GRAD.:     4.068 HEAT: 4.453270
 CYCLE:    34 TIME:   0.014 TIME LEFT:  2.00D  GRAD.:     4.575 HEAT: 4.448348
 CYCLE:    35 TIME:   0.014 TIME LEFT:  2.00D  GRAD.:     3.080 HEAT: 4.438121
 CYCLE:    36 TIME:   0.014 TIME LEFT:  2.00D  GRAD.:     2.735 HEAT: 4.427631
 CYCLE:    37 TIME:   0.015 TIME LEFT:  2.00D  GRAD.:     3.553 HEAT: 4.417796
 CYCLE:    38 TIME:   0.014 TIME LEFT:  2.00D  GRAD.:     4.046 HEAT: 4.411324
 CYCLE:    39 TIME:   0.013 TIME LEFT:  2.00D  GRAD.:     2.606 HEAT: 4.404373
 CYCLE:    40 TIME:   0.015 TIME LEFT:  2.00D  GRAD.:     2.428 HEAT: 4.397719
 CYCLE:    41 TIME:   0.016 TIME LEFT:  2.00D  GRAD.:     2.055 HEAT: 4.387118
 CYCLE:    42 TIME:   0.014 TIME LEFT:  2.00D  GRAD.:     2.453 HEAT: 4.374995
 CYCLE:    43 TIME:   0.014 TIME LEFT:  2.00D  GRAD.:     2.493 HEAT: 4.367330
 CYCLE:    44 TIME:   0.015 TIME LEFT:  2.00D  GRAD.:     2.474 HEAT: 4.357464
 CYCLE:    45 TIME:   0.015 TIME LEFT:  2.00D  GRAD.:     2.954 HEAT: 4.345997
 CYCLE:    46 TIME:   0.014 TIME LEFT:  2.00D  GRAD.:     2.303 HEAT: 4.339195
 CYCLE:    47 TIME:   0.014 TIME LEFT:  2.00D  GRAD.:     2.134 HEAT: 4.332655
 CYCLE:    48 TIME:   0.014 TIME LEFT:  2.00D  GRAD.:     2.516 HEAT: 4.321752
 CYCLE:    49 TIME:   0.014 TIME LEFT:  2.00D  GRAD.:     2.345 HEAT: 4.314045
 CYCLE:    50 TIME:   0.015 TIME LEFT:  2.00D  GRAD.:     2.234 HEAT: 4.304962
 CYCLE:    51 TIME:   0.014 TIME LEFT:  2.00D  GRAD.:     2.027 HEAT: 4.297114
 CYCLE:    52 TIME:   0.014 TIME LEFT:  2.00D  GRAD.:     2.746 HEAT: 4.291656
 CYCLE:    53 TIME:   0.014 TIME LEFT:  2.00D  GRAD.:     1.802 HEAT: 4.285819
 CYCLE:    54 TIME:   0.016 TIME LEFT:  2.00D  GRAD.:     1.667 HEAT: 4.280276
 CYCLE:    55 TIME:   0.014 TIME LEFT:  2.00D  GRAD.:     1.751 HEAT: 4.274173
 CYCLE:    56 TIME:   0.015 TIME LEFT:  2.00D  GRAD.:     1.444 HEAT: 4.270562
 CYCLE:    57 TIME:   0.014 TIME LEFT:  2.00D  GRAD.:     1.359 HEAT: 4.267253
 CYCLE:    58 TIME:   0.015 TIME LEFT:  2.00D  GRAD.:     1.743 HEAT: 4.262651
 CYCLE:    59 TIME:   0.015 TIME LEFT:  2.00D  GRAD.:     2.109 HEAT: 4.256225
 CYCLE:    60 TIME:   0.016 TIME LEFT:  2.00D  GRAD.:     2.005 HEAT: 4.247868
 CYCLE:    61 TIME:   0.014 TIME LEFT:  2.00D  GRAD.:     2.218 HEAT: 4.238379
 CYCLE:    62 TIME:   0.014 TIME LEFT:  2.00D  GRAD.:     1.888 HEAT: 4.230039
 CYCLE:    63 TIME:   0.014 TIME LEFT:  2.00D  GRAD.:     1.657 HEAT: 4.222987
 CYCLE:    64 TIME:   0.014 TIME LEFT:  2.00D  GRAD.:     1.346 HEAT: 4.218044
 CYCLE:    65 TIME:   0.014 TIME LEFT:  2.00D  GRAD.:     1.376 HEAT: 4.213262
 CYCLE:    66 TIME:   0.015 TIME LEFT:  2.00D  GRAD.:     1.783 HEAT: 4.206968
 CYCLE:    67 TIME:   0.014 TIME LEFT:  2.00D  GRAD.:     1.896 HEAT: 4.200329
 CYCLE:    68 TIME:   0.014 TIME LEFT:  2.00D  GRAD.:     1.784 HEAT: 4.193020
 CYCLE:    69 TIME:   0.015 TIME LEFT:  2.00D  GRAD.:     1.669 HEAT: 4.186228
 CYCLE:    70 TIME:   0.015 TIME LEFT:  2.00D  GRAD.:     2.276 HEAT: 4.178285
 CYCLE:    71 TIME:   0.014 TIME LEFT:  2.00D  GRAD.:     2.403 HEAT: 4.168642
 CYCLE:    72 TIME:   0.014 TIME LEFT:  2.00D  GRAD.:     2.199 HEAT: 4.156697
 CYCLE:    73 TIME:   0.015 TIME LEFT:  2.00D  GRAD.:     1.754 HEAT: 4.146142
 CYCLE:    74 TIME:   0.016 TIME LEFT:  2.00D  GRAD.:     1.410 HEAT: 4.141545
 CYCLE:    75 TIME:   0.017 TIME LEFT:  2.00D  GRAD.:     1.287 HEAT: 4.137756
 CYCLE:    76 TIME:   0.015 TIME LEFT:  2.00D  GRAD.:     1.147 HEAT: 4.134786
 CYCLE:    77 TIME:   0.017 TIME LEFT:  2.00D  GRAD.:     1.158 HEAT: 4.131813
 CYCLE:    78 TIME:   0.016 TIME LEFT:  2.00D  GRAD.:     1.146 HEAT: 4.128903
 CYCLE:    79 TIME:   0.015 TIME LEFT:  2.00D  GRAD.:     1.266 HEAT: 4.125434
 CYCLE:    80 TIME:   0.014 TIME LEFT:  2.00D  GRAD.:     1.309 HEAT: 4.122072
 CYCLE:    81 TIME:   0.014 TIME LEFT:  2.00D  GRAD.:     1.459 HEAT: 4.118373
 CYCLE:    82 TIME:   0.014 TIME LEFT:  2.00D  GRAD.:     1.653 HEAT: 4.113699
 CYCLE:    83 TIME:   0.015 TIME LEFT:  2.00D  GRAD.:     2.075 HEAT: 4.106424
 CYCLE:    84 TIME:   0.014 TIME LEFT:  2.00D  GRAD.:     2.535 HEAT: 4.094604
 CYCLE:    85 TIME:   0.015 TIME LEFT:  2.00D  GRAD.:     3.615 HEAT: 4.072444
 CYCLE:    86 TIME:   0.015 TIME LEFT:  2.00D  GRAD.:     3.565 HEAT: 4.051684
 CYCLE:    87 TIME:   0.014 TIME LEFT:  2.00D  GRAD.:     4.710 HEAT: 4.025561
 CYCLE:    88 TIME:   0.014 TIME LEFT:  2.00D  GRAD.:     7.581 HEAT: 4.011157
 CYCLE:    89 TIME:   0.014 TIME LEFT:  2.00D  GRAD.:     5.162 HEAT: 3.973122
 CYCLE:    90 TIME:   0.014 TIME LEFT:  2.00D  GRAD.:     3.176 HEAT: 3.947425
 CYCLE:    91 TIME:   0.014 TIME LEFT:  2.00D  GRAD.:     4.374 HEAT: 3.917172
 CYCLE:    92 TIME:   0.014 TIME LEFT:  2.00D  GRAD.:     3.591 HEAT: 3.884594
 CYCLE:    93 TIME:   0.015 TIME LEFT:  2.00D  GRAD.:     4.331 HEAT: 3.866081
 CYCLE:    94 TIME:   0.014 TIME LEFT:  2.00D  GRAD.:     3.462 HEAT: 3.848470
 CYCLE:    95 TIME:   0.014 TIME LEFT:  2.00D  GRAD.:     4.495 HEAT: 3.833943
 CYCLE:    96 TIME:   0.015 TIME LEFT:  2.00D  GRAD.:     3.360 HEAT: 3.817202
 CYCLE:    97 TIME:   0.016 TIME LEFT:  2.00D  GRAD.:     3.149 HEAT: 3.804236
 CYCLE:    98 TIME:   0.018 TIME LEFT:  2.00D  GRAD.:     2.296 HEAT: 3.793045
 CYCLE:    99 TIME:   0.016 TIME LEFT:  2.00D  GRAD.:     3.533 HEAT: 3.779830
 CYCLE:   100 TIME:   0.014 TIME LEFT:  2.00D  GRAD.:     4.235 HEAT: 3.761783
 CYCLE:   101 TIME:   0.014 TIME LEFT:  2.00D  GRAD.:     2.668 HEAT: 3.743127
 CYCLE:   102 TIME:   0.014 TIME LEFT:  2.00D  GRAD.:     3.676 HEAT: 3.726034
 CYCLE:   103 TIME:   0.014 TIME LEFT:  2.00D  GRAD.:     5.564 HEAT: 3.723946
 CYCLE:   104 TIME:   0.014 TIME LEFT:  2.00D  GRAD.:     3.204 HEAT: 3.700915
 CYCLE:   105 TIME:   0.013 TIME LEFT:  2.00D  GRAD.:     3.104 HEAT: 3.685475
 CYCLE:   106 TIME:   0.014 TIME LEFT:  2.00D  GRAD.:     3.813 HEAT: 3.644898
 CYCLE:   107 TIME:   0.015 TIME LEFT:  2.00D  GRAD.:     4.106 HEAT: 3.623174
 CYCLE:   108 TIME:   0.014 TIME LEFT:  2.00D  GRAD.:     3.572 HEAT: 3.604248
 CYCLE:   109 TIME:   0.014 TIME LEFT:  2.00D  GRAD.:     2.384 HEAT: 3.586475
 CYCLE:   110 TIME:   0.014 TIME LEFT:  2.00D  GRAD.:     2.454 HEAT: 3.578901
 CYCLE:   111 TIME:   0.013 TIME LEFT:  2.00D  GRAD.:     1.909 HEAT: 3.572535
 CYCLE:   112 TIME:   0.014 TIME LEFT:  2.00D  GRAD.:     1.805 HEAT: 3.567700
 CYCLE:   113 TIME:   0.014 TIME LEFT:  2.00D  GRAD.:     1.724 HEAT: 3.562403
 CYCLE:   114 TIME:   0.014 TIME LEFT:  2.00D  GRAD.:     2.179 HEAT: 3.555505
 CYCLE:   115 TIME:   0.014 TIME LEFT:  2.00D  GRAD.:     2.070 HEAT: 3.547040
 CYCLE:   116 TIME:   0.013 TIME LEFT:  2.00D  GRAD.:     2.138 HEAT: 3.538678
 CYCLE:   117 TIME:   0.014 TIME LEFT:  2.00D  GRAD.:     2.239 HEAT: 3.529938
 CYCLE:   118 TIME:   0.014 TIME LEFT:  2.00D  GRAD.:     2.124 HEAT: 3.519926
 CYCLE:   119 TIME:   0.014 TIME LEFT:  2.00D  GRAD.:     1.940 HEAT: 3.511483
 CYCLE:   120 TIME:   0.014 TIME LEFT:  2.00D  GRAD.:     1.658 HEAT: 3.504634
 CYCLE:   121 TIME:   0.015 TIME LEFT:  2.00D  GRAD.:     1.834 HEAT: 3.500900
 CYCLE:   122 TIME:   0.014 TIME LEFT:  2.00D  GRAD.:     1.469 HEAT: 3.496842
 CYCLE:   123 TIME:   0.014 TIME LEFT:  2.00D  GRAD.:     1.135 HEAT: 3.494363
 CYCLE:   124 TIME:   0.014 TIME LEFT:  2.00D  GRAD.:     0.836 HEAT: 3.492234
 CYCLE:   125 TIME:   0.014 TIME LEFT:  2.00D  GRAD.:     0.850 HEAT: 3.490981
 CYCLE:   126 TIME:   0.014 TIME LEFT:  2.00D  GRAD.:     0.923 HEAT: 3.488906
 CYCLE:   127 TIME:   0.014 TIME LEFT:  2.00D  GRAD.:     0.845 HEAT: 3.487504
 CYCLE:   128 TIME:   0.014 TIME LEFT:  2.00D  GRAD.:     0.671 HEAT: 3.486175
 CYCLE:   129 TIME:   0.014 TIME LEFT:  2.00D  GRAD.:     0.621 HEAT: 3.485242
 CYCLE:   130 TIME:   0.014 TIME LEFT:  2.00D  GRAD.:     0.688 HEAT: 3.484394
 CYCLE:   131 TIME:   0.014 TIME LEFT:  2.00D  GRAD.:     0.760 HEAT: 3.483466
 CYCLE:   132 TIME:   0.014 TIME LEFT:  2.00D  GRAD.:     0.984 HEAT: 3.482290
 CYCLE:   133 TIME:   0.014 TIME LEFT:  2.00D  GRAD.:     0.991 HEAT: 3.480482
 CYCLE:   134 TIME:   0.015 TIME LEFT:  2.00D  GRAD.:     1.261 HEAT: 3.478230
 CYCLE:   135 TIME:   0.014 TIME LEFT:  2.00D  GRAD.:     0.991 HEAT: 3.476913
 CYCLE:   136 TIME:   0.014 TIME LEFT:  2.00D  GRAD.:     1.125 HEAT: 3.474174
 CYCLE:   137 TIME:   0.014 TIME LEFT:  2.00D  GRAD.:     0.970 HEAT: 3.472816
 CYCLE:   138 TIME:   0.015 TIME LEFT:  2.00D  GRAD.:     1.636 HEAT: 3.467431
 CYCLE:   139 TIME:   0.014 TIME LEFT:  2.00D  GRAD.:     1.292 HEAT: 3.465653
 CYCLE:   140 TIME:   0.014 TIME LEFT:  2.00D  GRAD.:     0.549 HEAT: 3.464532
 CYCLE:   141 TIME:   0.015 TIME LEFT:  2.00D  GRAD.:     0.551 HEAT: 3.463424
 CYCLE:   142 TIME:   0.014 TIME LEFT:  2.00D  GRAD.:     0.561 HEAT: 3.462713
 CYCLE:   143 TIME:   0.017 TIME LEFT:  2.00D  GRAD.:     0.524 HEAT: 3.462168
 CYCLE:   144 TIME:   0.016 TIME LEFT:  2.00D  GRAD.:     0.496 HEAT: 3.461458
 CYCLE:   145 TIME:   0.015 TIME LEFT:  2.00D  GRAD.:     0.549 HEAT: 3.460479
 CYCLE:   146 TIME:   0.014 TIME LEFT:  2.00D  GRAD.:     0.605 HEAT: 3.459738
 CYCLE:   147 TIME:   0.014 TIME LEFT:  2.00D  GRAD.:     0.554 HEAT: 3.458928
 CYCLE:   148 TIME:   0.014 TIME LEFT:  2.00D  GRAD.:     0.618 HEAT: 3.458041
 CYCLE:   149 TIME:   0.014 TIME LEFT:  2.00D  GRAD.:     0.637 HEAT: 3.457232
 CYCLE:   150 TIME:   0.014 TIME LEFT:  2.00D  GRAD.:     0.782 HEAT: 3.455992
 CYCLE:   151 TIME:   0.013 TIME LEFT:  2.00D  GRAD.:     0.621 HEAT: 3.455325
 CYCLE:   152 TIME:   0.014 TIME LEFT:  2.00D  GRAD.:     0.590 HEAT: 3.454147
 CYCLE:   153 TIME:   0.013 TIME LEFT:  2.00D  GRAD.:     0.736 HEAT: 3.453545
 CYCLE:   154 TIME:   0.014 TIME LEFT:  2.00D  GRAD.:     0.966 HEAT: 3.452259
 CYCLE:   155 TIME:   0.014 TIME LEFT:  2.00D  GRAD.:     1.254 HEAT: 3.450762
 CYCLE:   156 TIME:   0.014 TIME LEFT:  2.00D  GRAD.:     1.419 HEAT: 3.448623
 CYCLE:   157 TIME:   0.015 TIME LEFT:  2.00D  GRAD.:     1.640 HEAT: 3.444956
 CYCLE:   158 TIME:   0.014 TIME LEFT:  2.00D  GRAD.:     1.449 HEAT: 3.442190
 CYCLE:   159 TIME:   0.014 TIME LEFT:  2.00D  GRAD.:     2.079 HEAT: 3.433984
 CYCLE:   160 TIME:   0.014 TIME LEFT:  2.00D  GRAD.:     1.362 HEAT: 3.431131
 CYCLE:   161 TIME:   0.014 TIME LEFT:  2.00D  GRAD.:     1.316 HEAT: 3.426492
 CYCLE:   162 TIME:   0.014 TIME LEFT:  2.00D  GRAD.:     1.135 HEAT: 3.422594
 CYCLE:   163 TIME:   0.016 TIME LEFT:  2.00D  GRAD.:     0.936 HEAT: 3.420007
 CYCLE:   164 TIME:   0.014 TIME LEFT:  2.00D  GRAD.:     0.801 HEAT: 3.418461
 CYCLE:   165 TIME:   0.015 TIME LEFT:  2.00D  GRAD.:     0.718 HEAT: 3.417028
 CYCLE:   166 TIME:   0.015 TIME LEFT:  2.00D  GRAD.:     0.927 HEAT: 3.415845
 CYCLE:   167 TIME:   0.014 TIME LEFT:  2.00D  GRAD.:     0.852 HEAT: 3.414881
 CYCLE:   168 TIME:   0.015 TIME LEFT:  2.00D  GRAD.:     1.861 HEAT: 3.416014
 CYCLE:   169 TIME:   0.015 TIME LEFT:  2.00D  GRAD.:     0.495 HEAT: 3.413489
 CYCLE:   170 TIME:   0.014 TIME LEFT:  2.00D  GRAD.:     0.426 HEAT: 3.413050
 CYCLE:   171 TIME:   0.015 TIME LEFT:  2.00D  GRAD.:     0.658 HEAT: 3.412092
 CYCLE:   172 TIME:   0.014 TIME LEFT:  2.00D  GRAD.:     0.488 HEAT: 3.411712
 CYCLE:   173 TIME:   0.014 TIME LEFT:  2.00D  GRAD.:     0.495 HEAT: 3.411396
 CYCLE:   174 TIME:   0.015 TIME LEFT:  2.00D  GRAD.:     0.400 HEAT: 3.410919
 CYCLE:   175 TIME:   0.014 TIME LEFT:  2.00D  GRAD.:     0.502 HEAT: 3.410564
 CYCLE:   176 TIME:   0.015 TIME LEFT:  2.00D  GRAD.:     0.524 HEAT: 3.410060
 CYCLE:   177 TIME:   0.014 TIME LEFT:  2.00D  GRAD.:     0.476 HEAT: 3.409473
 CYCLE:   178 TIME:   0.014 TIME LEFT:  2.00D  GRAD.:     0.734 HEAT: 3.408786
 CYCLE:   179 TIME:   0.015 TIME LEFT:  2.00D  GRAD.:     0.725 HEAT: 3.408208
 CYCLE:   180 TIME:   0.014 TIME LEFT:  2.00D  GRAD.:     0.889 HEAT: 3.407298
 CYCLE:   181 TIME:   0.014 TIME LEFT:  2.00D  GRAD.:     0.717 HEAT: 3.406172
 CYCLE:   182 TIME:   0.015 TIME LEFT:  2.00D  GRAD.:     0.909 HEAT: 3.404599
 CYCLE:   183 TIME:   0.014 TIME LEFT:  2.00D  GRAD.:     0.743 HEAT: 3.403783
 CYCLE:   184 TIME:   0.014 TIME LEFT:  2.00D  GRAD.:     1.045 HEAT: 3.402077
 CYCLE:   185 TIME:   0.016 TIME LEFT:  2.00D  GRAD.:     0.874 HEAT: 3.400434
 CYCLE:   186 TIME:   0.014 TIME LEFT:  2.00D  GRAD.:     0.752 HEAT: 3.399579
 CYCLE:   187 TIME:   0.015 TIME LEFT:  2.00D  GRAD.:     0.853 HEAT: 3.397970
 CYCLE:   188 TIME:   0.014 TIME LEFT:  2.00D  GRAD.:     0.689 HEAT: 3.396978
 CYCLE:   189 TIME:   0.015 TIME LEFT:  2.00D  GRAD.:     0.667 HEAT: 3.394587
 CYCLE:   190 TIME:   0.014 TIME LEFT:  2.00D  GRAD.:     0.667 HEAT: 3.392899
 CYCLE:   191 TIME:   0.014 TIME LEFT:  2.00D  GRAD.:     0.806 HEAT: 3.390448
 CYCLE:   192 TIME:   0.014 TIME LEFT:  2.00D  GRAD.:     1.116 HEAT: 3.388459
 CYCLE:   193 TIME:   0.014 TIME LEFT:  2.00D  GRAD.:     1.541 HEAT: 3.385954
 CYCLE:   194 TIME:   0.014 TIME LEFT:  2.00D  GRAD.:     2.218 HEAT: 3.381168
 CYCLE:   195 TIME:   0.014 TIME LEFT:  2.00D  GRAD.:     2.859 HEAT: 3.371619
 CYCLE:   196 TIME:   0.014 TIME LEFT:  2.00D  GRAD.:     3.919 HEAT: 3.360860
 CYCLE:   197 TIME:   0.014 TIME LEFT:  2.00D  GRAD.:     3.370 HEAT: 3.348926
 CYCLE:   198 TIME:   0.014 TIME LEFT:  2.00D  GRAD.:     2.148 HEAT: 3.348632
 CYCLE:   199 TIME:   0.014 TIME LEFT:  2.00D  GRAD.:     2.488 HEAT: 3.340937
 CYCLE:   200 TIME:   0.015 TIME LEFT:  2.00D  GRAD.:     3.917 HEAT: 3.342274
 CYCLE:   201 TIME:   0.014 TIME LEFT:  2.00D  GRAD.:     1.096 HEAT: 3.333246
 CYCLE:   202 TIME:   0.015 TIME LEFT:  2.00D  GRAD.:     1.970 HEAT: 3.330112
 CYCLE:   203 TIME:   0.014 TIME LEFT:  2.00D  GRAD.:     1.870 HEAT: 3.323762
 CYCLE:   204 TIME:   0.015 TIME LEFT:  2.00D  GRAD.:     2.354 HEAT: 3.319017
 CYCLE:   205 TIME:   0.014 TIME LEFT:  2.00D  GRAD.:     1.572 HEAT: 3.313296
 CYCLE:   206 TIME:   0.016 TIME LEFT:  2.00D  GRAD.:     3.558 HEAT: 3.313200
 CYCLE:   207 TIME:   0.016 TIME LEFT:  2.00D  GRAD.:     2.548 HEAT: 3.308901
 CYCLE:   208 TIME:   0.015 TIME LEFT:  2.00D  GRAD.:     1.820 HEAT: 3.306305
 CYCLE:   209 TIME:   0.015 TIME LEFT:  2.00D  GRAD.:     1.191 HEAT: 3.301355
 CYCLE:   210 TIME:   0.015 TIME LEFT:  2.00D  GRAD.:     2.408 HEAT: 3.298642
 CYCLE:   211 TIME:   0.014 TIME LEFT:  2.00D  GRAD.:     2.296 HEAT: 3.295199
 CYCLE:   212 TIME:   0.014 TIME LEFT:  2.00D  GRAD.:     1.495 HEAT: 3.291553
 CYCLE:   213 TIME:   0.015 TIME LEFT:  2.00D  GRAD.:     1.899 HEAT: 3.289660
 CYCLE:   214 TIME:   0.014 TIME LEFT:  2.00D  GRAD.:     1.029 HEAT: 3.286786
 CYCLE:   215 TIME:   0.015 TIME LEFT:  2.00D  GRAD.:     1.744 HEAT: 3.281651
 CYCLE:   216 TIME:   0.015 TIME LEFT:  2.00D  GRAD.:     1.952 HEAT: 3.276108
 CYCLE:   217 TIME:   0.039 TIME LEFT:  2.00D  GRAD.:     2.341 HEAT: 3.274339
 CYCLE:   218 TIME:   0.014 TIME LEFT:  2.00D  GRAD.:     5.489 HEAT: 3.281658
 CYCLE:   219 TIME:   0.013 TIME LEFT:  2.00D  GRAD.:     1.854 HEAT: 3.267972
 CYCLE:   220 TIME:   0.018 TIME LEFT:  2.00D  GRAD.:     1.014 HEAT: 3.266489
 CYCLE:   221 TIME:   0.015 TIME LEFT:  2.00D  GRAD.:     1.113 HEAT: 3.264431
 CYCLE:   222 TIME:   0.014 TIME LEFT:  2.00D  GRAD.:     1.471 HEAT: 3.262519
 CYCLE:   223 TIME:   0.015 TIME LEFT:  2.00D  GRAD.:     2.395 HEAT: 3.263204
 CYCLE:   224 TIME:   0.014 TIME LEFT:  2.00D  GRAD.:     0.984 HEAT: 3.260319
 CYCLE:   225 TIME:   0.018 TIME LEFT:  2.00D  GRAD.:     0.869 HEAT: 3.259344
 CYCLE:   226 TIME:   0.015 TIME LEFT:  2.00D  GRAD.:     2.602 HEAT: 3.259218
 CYCLE:   227 TIME:   0.017 TIME LEFT:  2.00D  GRAD.:     1.016 HEAT: 3.255105
 CYCLE:   228 TIME:   0.016 TIME LEFT:  2.00D  GRAD.:     0.901 HEAT: 3.253371
 CYCLE:   229 TIME:   0.015 TIME LEFT:  2.00D  GRAD.:     1.436 HEAT: 3.249840
 CYCLE:   230 TIME:   0.014 TIME LEFT:  2.00D  GRAD.:     0.941 HEAT: 3.247373
 CYCLE:   231 TIME:   0.015 TIME LEFT:  2.00D  GRAD.:     0.913 HEAT: 3.244856
 CYCLE:   232 TIME:   0.014 TIME LEFT:  2.00D  GRAD.:     1.092 HEAT: 3.244355
 CYCLE:   233 TIME:   0.014 TIME LEFT:  2.00D  GRAD.:     0.577 HEAT: 3.243714
 CYCLE:   234 TIME:   0.014 TIME LEFT:  2.00D  GRAD.:     0.586 HEAT: 3.243337
 CYCLE:   235 TIME:   0.014 TIME LEFT:  2.00D  GRAD.:     0.477 HEAT: 3.243015
 CYCLE:   236 TIME:   0.013 TIME LEFT:  2.00D  GRAD.:     0.310 HEAT: 3.242859
 CYCLE:   237 TIME:   0.014 TIME LEFT:  2.00D  GRAD.:     0.288 HEAT: 3.242744
 CYCLE:   238 TIME:   0.014 TIME LEFT:  2.00D  GRAD.:     0.395 HEAT: 3.242650
 CYCLE:   239 TIME:   0.014 TIME LEFT:  2.00D  GRAD.:     0.343 HEAT: 3.242528
 CYCLE:   240 TIME:   0.014 TIME LEFT:  2.00D  GRAD.:     0.290 HEAT: 3.242404
 CYCLE:   241 TIME:   0.014 TIME LEFT:  2.00D  GRAD.:     0.261 HEAT: 3.242256
 CYCLE:   242 TIME:   0.013 TIME LEFT:  2.00D  GRAD.:     0.319 HEAT: 3.242113
 CYCLE:   243 TIME:   0.014 TIME LEFT:  2.00D  GRAD.:     0.414 HEAT: 3.241826
 CYCLE:   244 TIME:   0.014 TIME LEFT:  2.00D  GRAD.:     0.712 HEAT: 3.241341
 CYCLE:   245 TIME:   0.014 TIME LEFT:  2.00D  GRAD.:     0.583 HEAT: 3.240895
 CYCLE:   246 TIME:   0.017 TIME LEFT:  2.00D  GRAD.:     0.671 HEAT: 3.239302
 CYCLE:   247 TIME:   0.015 TIME LEFT:  2.00D  GRAD.:     0.773 HEAT: 3.238430
 CYCLE:   248 TIME:   0.015 TIME LEFT:  2.00D  GRAD.:     1.287 HEAT: 3.235898
 CYCLE:   249 TIME:   0.015 TIME LEFT:  2.00D  GRAD.:     1.470 HEAT: 3.232891
 CYCLE:   250 TIME:   0.015 TIME LEFT:  2.00D  GRAD.:     1.513 HEAT: 3.229649
 CYCLE:   251 TIME:   0.014 TIME LEFT:  2.00D  GRAD.:     1.115 HEAT: 3.227852
 CYCLE:   252 TIME:   0.015 TIME LEFT:  2.00D  GRAD.:     1.298 HEAT: 3.227027
 CYCLE:   253 TIME:   0.014 TIME LEFT:  2.00D  GRAD.:     0.494 HEAT: 3.226107
 CYCLE:   254 TIME:   0.014 TIME LEFT:  2.00D  GRAD.:     0.483 HEAT: 3.225735
 CYCLE:   255 TIME:   0.014 TIME LEFT:  2.00D  GRAD.:     0.519 HEAT: 3.225369
 CYCLE:   256 TIME:   0.014 TIME LEFT:  2.00D  GRAD.:     0.543 HEAT: 3.225103
 CYCLE:   257 TIME:   0.014 TIME LEFT:  2.00D  GRAD.:     0.670 HEAT: 3.224633
 CYCLE:   258 TIME:   0.014 TIME LEFT:  2.00D  GRAD.:     0.582 HEAT: 3.224329
 CYCLE:   259 TIME:   0.014 TIME LEFT:  2.00D  GRAD.:     0.536 HEAT: 3.223863
 CYCLE:   260 TIME:   0.014 TIME LEFT:  2.00D  GRAD.:     0.511 HEAT: 3.223339
 CYCLE:   261 TIME:   0.014 TIME LEFT:  2.00D  GRAD.:     0.431 HEAT: 3.222891
 CYCLE:   262 TIME:   0.014 TIME LEFT:  2.00D  GRAD.:     0.438 HEAT: 3.222176
 CYCLE:   263 TIME:   0.014 TIME LEFT:  2.00D  GRAD.:     0.588 HEAT: 3.221500
 CYCLE:   264 TIME:   0.014 TIME LEFT:  2.00D  GRAD.:     0.612 HEAT: 3.220893
 CYCLE:   265 TIME:   0.014 TIME LEFT:  2.00D  GRAD.:     0.533 HEAT: 3.219914
 CYCLE:   266 TIME:   0.014 TIME LEFT:  2.00D  GRAD.:     0.514 HEAT: 3.219390
 CYCLE:   267 TIME:   0.015 TIME LEFT:  2.00D  GRAD.:     0.387 HEAT: 3.219080
 CYCLE:   268 TIME:   0.017 TIME LEFT:  2.00D  GRAD.:     0.398 HEAT: 3.218743
 CYCLE:   269 TIME:   0.019 TIME LEFT:  2.00D  GRAD.:     0.577 HEAT: 3.218230
 CYCLE:   270 TIME:   0.015 TIME LEFT:  2.00D  GRAD.:     0.812 HEAT: 3.217442
 CYCLE:   271 TIME:   0.015 TIME LEFT:  2.00D  GRAD.:     1.501 HEAT: 3.216218
 CYCLE:   272 TIME:   0.018 TIME LEFT:  2.00D  GRAD.:     0.817 HEAT: 3.214913
 CYCLE:   273 TIME:   0.016 TIME LEFT:  2.00D  GRAD.:     0.549 HEAT: 3.213961
 CYCLE:   274 TIME:   0.015 TIME LEFT:  2.00D  GRAD.:     0.997 HEAT: 3.213493
 CYCLE:   275 TIME:   0.019 TIME LEFT:  2.00D  GRAD.:     0.757 HEAT: 3.213006
 CYCLE:   276 TIME:   0.015 TIME LEFT:  2.00D  GRAD.:     0.410 HEAT: 3.212686
 CYCLE:   277 TIME:   0.014 TIME LEFT:  2.00D  GRAD.:     0.493 HEAT: 3.212140
 CYCLE:   278 TIME:   0.017 TIME LEFT:  2.00D  GRAD.:     0.909 HEAT: 3.211426
 CYCLE:   279 TIME:   0.016 TIME LEFT:  2.00D  GRAD.:     1.587 HEAT: 3.210981
 CYCLE:   280 TIME:   0.015 TIME LEFT:  2.00D  GRAD.:     1.250 HEAT: 3.209529
 CYCLE:   281 TIME:   0.015 TIME LEFT:  2.00D  GRAD.:     1.491 HEAT: 3.208066
 CYCLE:   282 TIME:   0.014 TIME LEFT:  2.00D  GRAD.:     0.789 HEAT: 3.206191
 CYCLE:   283 TIME:   0.015 TIME LEFT:  2.00D  GRAD.:     1.016 HEAT: 3.204426
 CYCLE:   284 TIME:   0.015 TIME LEFT:  2.00D  GRAD.:     2.260 HEAT: 3.204104
 CYCLE:   285 TIME:   0.014 TIME LEFT:  2.00D  GRAD.:     2.278 HEAT: 3.202627
 CYCLE:   286 TIME:   0.014 TIME LEFT:  2.00D  GRAD.:     1.349 HEAT: 3.201361
 CYCLE:   287 TIME:   0.014 TIME LEFT:  2.00D  GRAD.:     0.705 HEAT: 3.198838
 CYCLE:   288 TIME:   0.018 TIME LEFT:  2.00D  GRAD.:     1.789 HEAT: 3.198679
 CYCLE:   289 TIME:   0.019 TIME LEFT:  2.00D  GRAD.:     1.299 HEAT: 3.196886
 CYCLE:   290 TIME:   0.017 TIME LEFT:  2.00D  GRAD.:     0.522 HEAT: 3.195956
 CYCLE:   291 TIME:   0.015 TIME LEFT:  2.00D  GRAD.:     0.582 HEAT: 3.194727
 CYCLE:   292 TIME:   0.015 TIME LEFT:  2.00D  GRAD.:     0.589 HEAT: 3.194311
 CYCLE:   293 TIME:   0.014 TIME LEFT:  2.00D  GRAD.:     0.328 HEAT: 3.194046
 CYCLE:   294 TIME:   0.014 TIME LEFT:  2.00D  GRAD.:     0.340 HEAT: 3.193853
 CYCLE:   295 TIME:   0.014 TIME LEFT:  2.00D  GRAD.:     0.359 HEAT: 3.193667
 CYCLE:   296 TIME:   0.014 TIME LEFT:  2.00D  GRAD.:     0.274 HEAT: 3.193546
 CYCLE:   297 TIME:   0.014 TIME LEFT:  2.00D  GRAD.:     0.290 HEAT: 3.193436
 CYCLE:   298 TIME:   0.014 TIME LEFT:  2.00D  GRAD.:     0.326 HEAT: 3.193247
 CYCLE:   299 TIME:   0.014 TIME LEFT:  2.00D  GRAD.:     0.333 HEAT: 3.193119
 CYCLE:   300 TIME:   0.014 TIME LEFT:  2.00D  GRAD.:     0.294 HEAT: 3.192943
 CYCLE:   301 TIME:   0.014 TIME LEFT:  2.00D  GRAD.:     0.353 HEAT: 3.192785
 CYCLE:   302 TIME:   0.014 TIME LEFT:  2.00D  GRAD.:     0.332 HEAT: 3.192662
 CYCLE:   303 TIME:   0.014 TIME LEFT:  2.00D  GRAD.:     0.313 HEAT: 3.192500
 CYCLE:   304 TIME:   0.014 TIME LEFT:  2.00D  GRAD.:     0.221 HEAT: 3.192361
 CYCLE:   305 TIME:   0.014 TIME LEFT:  2.00D  GRAD.:     0.095 HEAT: 3.192328
 CYCLE:   306 TIME:   0.014 TIME LEFT:  2.00D  GRAD.:     0.135 HEAT: 3.192325
 CYCLE:   307 TIME:   0.014 TIME LEFT:  2.00D  GRAD.:     0.060 HEAT: 3.192315
 CYCLE:   308 TIME:   0.014 TIME LEFT:  2.00D  GRAD.:     0.049 HEAT: 3.192313

     RMS GRADIENT =  0.04883  IS LESS THAN CUTOFF =  0.05000



 -------------------------------------------------------------------------------
pm3  precise nosym
 InChI=1S/C12H20/c1-3-5-7-11-9-10-12(11)8-6-4-2/h5-8,11-12H,3-4,9-10H2,1-2H3



     GEOMETRY OPTIMISED USING EIGENVECTOR FOLLOWING (EF).     
     SCF FIELD WAS ACHIEVED                                   


                              PM3 CALCULATION
                                                       MOPAC2012 (Version: 13.159M)
                                                       Mon Jun  2 11:03:54 2014
                                                       No. of days left =   6




          FINAL HEAT OF FORMATION =          3.19231 KCAL/MOL =      13.35664 KJ/MOL


          TOTAL ENERGY            =      -1730.20013 EV
          ELECTRONIC ENERGY       =     -10497.03886 EV  POINT GROUP:     C1  
          CORE-CORE REPULSION     =       8766.83873 EV
          COSMO AREA              =        248.94 SQUARE ANGSTROMS
          COSMO VOLUME            =        249.59 CUBIC ANGSTROMS

          GRADIENT NORM           =          0.04883
          IONIZATION POTENTIAL    =          9.548391 EV
          HOMO LUMO ENERGIES (EV) =         -9.548  0.926
          NO. OF FILLED LEVELS    =         34
          MOLECULAR WEIGHT        =        164.290

          MOLECULAR DIMENSIONS (Angstroms)

            Atom       Atom       Distance
            H    24    H    17     8.65026
            H    24    H    17     8.64419
            H    18    H    21     3.61094


          SCF CALCULATIONS        =        323
          COMPUTATION TIME        =          4.650 SECONDS




   ATOM   CHEMICAL          X               Y               Z
  NUMBER   SYMBOL      (ANGSTROMS)     (ANGSTROMS)     (ANGSTROMS)
 
     1       C          0.74427521  *   1.30307382  *   0.38327429  *
     2       C         -0.56598090  *   1.13745530  *  -0.45090557  *
     3       C          0.67025767  *   2.83658864  *   0.17291390  *
     4       C         -0.64864010  *   2.67716972  *  -0.60469467  *
     5       C          3.89701830  *  -0.85323362  *  -0.16778019  *
     6       C         -3.45508490  *  -1.17020363  *   0.65368669  *
     7       C          3.88587754  *  -2.35208365  *   0.04328731  *
     8       C         -4.64964413  *  -1.44173565  *  -0.23538755  *
     9       C          1.93185171  *   0.65777500  *  -0.22708958  *
    10       C         -1.68951013  *   0.53598979  *   0.30753627  *
    11       C          2.69548979  *  -0.21379180  *   0.43361395  *
    12       C         -2.34043625  *  -0.54992912  *  -0.11246667  *
    13       H          0.62092654  *   1.00287577  *   1.44609793  *
    14       H         -0.40075929  *   0.61172818  *  -1.41592826  *
    15       H          1.50125609  *   3.26072404  *  -0.41134199  *
    16       H          0.59421035  *   3.42079111  *   1.10171606  *
    17       H         -1.52487147  *   3.14037062  *  -0.12565621  *
    18       H         -0.62050137  *   3.03328521  *  -1.64494936  *
    19       H          3.97492898  *  -0.62309810  *  -1.24933077  *
    20       H          4.79874129  *  -0.40777484  *   0.29891716  *
    21       H         -3.75627203  *  -0.53366813  *   1.50977224  *
    22       H         -3.08669816  *  -2.11641375  *   1.09905781  *
    23       H          3.01823225  *  -2.82092569  *  -0.43861671  *
    24       H          4.78667783  *  -2.81822707  *  -0.37579425  *
    25       H          3.84641719  *  -2.61229920  *   1.10942299  *
    26       H         -5.45952630  *  -1.92546050  *   0.32539058  *
    27       H         -4.39061517  *  -2.10152205  *  -1.07412728  *
    28       H         -5.05341724  *  -0.51485392  *  -0.66277758  *
    29       H          2.46869285  *  -0.49878612  *   1.46927141  *
    30       H          2.15415057  *   0.93795051  *  -1.26522077  *
    31       H         -2.07297294  *  -1.04495381  *  -1.05514923  *
    32       H         -1.96012282  *   1.03476603  *   1.24753860  *

           Empirical Formula: C12 H20  =    32 atoms



      MOLECULAR POINT GROUP   :   C1  


                  EIGENVALUES  
 -41.17266 -37.05175 -36.03089 -30.60074 -29.68943 -24.92772 -24.87843 -22.16677
 -21.53137 -20.33131 -19.29234 -18.44200 -16.95549 -16.81849 -15.60435 -15.41160
 -15.24267 -14.99071 -14.30697 -14.21836 -13.97970 -13.56485 -13.51831 -12.97681
 -12.94085 -12.31053 -12.15776 -11.98889 -11.95957 -11.71571 -11.67805 -11.30251
  -9.99019  -9.54839   0.92555   1.17375   3.17971   3.36813   3.59441   3.60128
   3.63451   3.78148   3.80273   3.85583   3.88898   3.96100   3.96785   4.00666
   4.06945   4.17941   4.20237   4.33585   4.36683   4.43925   4.45527   4.45622
   4.70383   4.71531   4.78838   4.80668   4.86622   4.86879   5.20355   5.30798
   5.74568   5.83647   6.03570   6.08720


              NET ATOMIC CHARGES AND DIPOLE CONTRIBUTIONS

  ATOM NO.   TYPE          CHARGE      No. of ELECS.   s-Pop       p-Pop       
    1          C          -0.056061        4.0561     1.18146     2.87461
    2          C          -0.055764        4.0558     1.18143     2.87434
    3          C          -0.106722        4.1067     1.17370     2.93302
    4          C          -0.106605        4.1066     1.17369     2.93291
    5          C          -0.062706        4.0627     1.14594     2.91677
    6          C          -0.062862        4.0629     1.14595     2.91692
    7          C          -0.105921        4.1059     1.13765     2.96827
    8          C          -0.105860        4.1059     1.13766     2.96820
    9          C          -0.143068        4.1431     1.19466     2.94841
   10          C          -0.143243        4.1432     1.19466     2.94859
   11          C          -0.143003        4.1430     1.19799     2.94501
   12          C          -0.142807        4.1428     1.19798     2.94483
   13          H           0.077615        0.9224     0.92238
   14          H           0.077868        0.9221     0.92213
   15          H           0.059577        0.9404     0.94042
   16          H           0.055380        0.9446     0.94462
   17          H           0.059798        0.9402     0.94020
   18          H           0.055410        0.9446     0.94459
   19          H           0.051251        0.9487     0.94875
   20          H           0.053079        0.9469     0.94692
   21          H           0.051287        0.9487     0.94871
   22          H           0.053388        0.9466     0.94661
   23          H           0.040320        0.9597     0.95968
   24          H           0.036626        0.9634     0.96337
   25          H           0.037970        0.9620     0.96203
   26          H           0.036667        0.9633     0.96333
   27          H           0.037920        0.9621     0.96208
   28          H           0.040032        0.9600     0.95997
   29          H           0.102010        0.8980     0.89799
   30          H           0.103185        0.8968     0.89682
   31          H           0.102120        0.8979     0.89788
   32          H           0.103118        0.8969     0.89688
 DIPOLE           X         Y         Z       TOTAL
 POINT-CHG.     0.021    -0.133     0.025     0.137
 HYBRID         0.001    -0.018     0.003     0.018
 SUM            0.023    -0.151     0.028     0.155


          ATOMIC ORBITAL ELECTRON POPULATIONS

    Atom      s        px        py        pz   
    1  C   1.18146   0.93180   0.95264   0.99016
    2  C   1.18143   0.93522   0.95645   0.98266
    3  C   1.17370   0.97663   0.95359   1.00280
    4  C   1.17369   0.97639   0.95448   1.00205
    5  C   1.14594   0.96365   0.95353   0.99958
    6  C   1.14595   0.94431   1.00231   0.97030
    7  C   1.13765   1.00889   0.95061   1.00877
    8  C   1.13766   0.96986   1.00815   0.99019
    9  C   1.19466   0.96812   0.98808   0.99221
   10  C   1.19466   0.97758   0.97557   0.99543
   11  C   1.19799   0.97094   0.98068   0.99340
   12  C   1.19798   0.97570   0.97263   0.99650
   13  H   0.92238
   14  H   0.92213
   15  H   0.94042
   16  H   0.94462
   17  H   0.94020
   18  H   0.94459
   19  H   0.94875
   20  H   0.94692
   21  H   0.94871
   22  H   0.94661
   23  H   0.95968
   24  H   0.96337
   25  H   0.96203
   26  H   0.96333
   27  H   0.96208
   28  H   0.95997
   29  H   0.89799
   30  H   0.89682
   31  H   0.89788
   32  H   0.89688
 *******************************************************************************
 ** Site#: 14399           For non-commercial use only        Version 13.159M **
 *******************************************************************************
 ** Cite this work as: MOPAC2012, James J. P. Stewart, Stewart Computational  **
 ** Chemistry, Version 13.159M web: HTTP://OpenMOPAC.net  Days remaining:   6 **
 *******************************************************************************
 **                                                                           **
 **                                MOPAC2012                                  **
 **                                                                           **
 *******************************************************************************

                            PM3 CALCULATION RESULTS


 *******************************************************************************
 *  CALCULATION DONE:                                Mon Jun  2 11:03:54 2014  *
 *  PM3      - The PM3 Hamiltonian to be used
 *  OLDGEO   - PREVIOUS GEOMETRY TO BE USED
 *  PRECISE  - CRITERIA TO BE INCREASED BY 100 TIMES
 *  NOSYM    - POINT-GROUP SYMMETRY SET TO C1
 *  T=       - A TIME OF 172800.0 SECONDS REQUESTED
 *  DUMP=N   - RESTART FILE WRITTEN EVERY  7200.000 SECONDS
 *  THERMO   - THERMODYNAMIC QUANTITIES TO BE CALCULATED
 *******************************************************************************
oldgeo thermo nosym precise  pm3

   ATOM   CHEMICAL          X               Y               Z
  NUMBER   SYMBOL      (ANGSTROMS)     (ANGSTROMS)     (ANGSTROMS)
 
     1       C          0.74427521  *   1.30307382  *   0.38327429  *
     2       C         -0.56598090  *   1.13745530  *  -0.45090557  *
     3       C          0.67025767  *   2.83658864  *   0.17291390  *
     4       C         -0.64864010  *   2.67716972  *  -0.60469467  *
     5       C          3.89701830  *  -0.85323362  *  -0.16778019  *
     6       C         -3.45508490  *  -1.17020363  *   0.65368669  *
     7       C          3.88587754  *  -2.35208365  *   0.04328731  *
     8       C         -4.64964413  *  -1.44173565  *  -0.23538755  *
     9       C          1.93185171  *   0.65777500  *  -0.22708958  *
    10       C         -1.68951013  *   0.53598979  *   0.30753627  *
    11       C          2.69548979  *  -0.21379180  *   0.43361395  *
    12       C         -2.34043625  *  -0.54992912  *  -0.11246667  *
    13       H          0.62092654  *   1.00287577  *   1.44609793  *
    14       H         -0.40075929  *   0.61172818  *  -1.41592826  *
    15       H          1.50125609  *   3.26072404  *  -0.41134199  *
    16       H          0.59421035  *   3.42079111  *   1.10171606  *
    17       H         -1.52487147  *   3.14037062  *  -0.12565621  *
    18       H         -0.62050137  *   3.03328521  *  -1.64494936  *
    19       H          3.97492898  *  -0.62309810  *  -1.24933077  *
    20       H          4.79874129  *  -0.40777484  *   0.29891716  *
    21       H         -3.75627203  *  -0.53366813  *   1.50977224  *
    22       H         -3.08669816  *  -2.11641375  *   1.09905781  *
    23       H          3.01823225  *  -2.82092569  *  -0.43861671  *
    24       H          4.78667783  *  -2.81822707  *  -0.37579425  *
    25       H          3.84641719  *  -2.61229920  *   1.10942299  *
    26       H         -5.45952630  *  -1.92546050  *   0.32539058  *
    27       H         -4.39061517  *  -2.10152205  *  -1.07412728  *
    28       H         -5.05341724  *  -0.51485392  *  -0.66277758  *
    29       H          2.46869285  *  -0.49878612  *   1.46927141  *
    30       H          2.15415057  *   0.93795051  *  -1.26522077  *
    31       H         -2.07297294  *  -1.04495381  *  -1.05514923  *
    32       H         -1.96012282  *   1.03476603  *   1.24753860  *
 


          CARTESIAN COORDINATES 

    NO.       ATOM         X         Y         Z

     1         C        0.7443    1.3031    0.3833
     2         C       -0.5660    1.1375   -0.4509
     3         C        0.6703    2.8366    0.1729
     4         C       -0.6486    2.6772   -0.6047
     5         C        3.8970   -0.8532   -0.1678
     6         C       -3.4551   -1.1702    0.6537
     7         C        3.8859   -2.3521    0.0433
     8         C       -4.6496   -1.4417   -0.2354
     9         C        1.9319    0.6578   -0.2271
    10         C       -1.6895    0.5360    0.3075
    11         C        2.6955   -0.2138    0.4336
    12         C       -2.3404   -0.5499   -0.1125
    13         H        0.6209    1.0029    1.4461
    14         H       -0.4008    0.6117   -1.4159
    15         H        1.5013    3.2607   -0.4113
    16         H        0.5942    3.4208    1.1017
    17         H       -1.5249    3.1404   -0.1257
    18         H       -0.6205    3.0333   -1.6449
    19         H        3.9749   -0.6231   -1.2493
    20         H        4.7987   -0.4078    0.2989
    21         H       -3.7563   -0.5337    1.5098
    22         H       -3.0867   -2.1164    1.0991
    23         H        3.0182   -2.8209   -0.4386
    24         H        4.7867   -2.8182   -0.3758
    25         H        3.8464   -2.6123    1.1094
    26         H       -5.4595   -1.9255    0.3254
    27         H       -4.3906   -2.1015   -1.0741
    28         H       -5.0534   -0.5149   -0.6628
    29         H        2.4687   -0.4988    1.4693
    30         H        2.1542    0.9380   -1.2652
    31         H       -2.0730   -1.0450   -1.0551
    32         H       -1.9601    1.0348    1.2475

  H: (PM3): J. J. P. STEWART, J. COMP. CHEM. 10, 209 (1989).
  C: (PM3): J. J. P. STEWART, J. COMP. CHEM. 10, 209 (1989).

           Empirical Formula: C12 H20  =    32 atoms



      MOLECULAR POINT GROUP   :   C1  


      RHF CALCULATION, NO. OF DOUBLY OCCUPIED LEVELS =   34



          HEAT OF FORMATION =       3.192313 KCALS/MOLE


          INTERNAL COORDINATE DERIVATIVES

   NUMBER  ATOM       BOND         ANGLE      DIHEDRAL

     1       C      0.002065    -0.000058    -0.000248
     2       C     -0.000385     0.000739     0.001741
     3       C      0.002902     0.002629     0.001419
     4       C     -0.000624     0.002954     0.001339
     5       C     -0.001077     0.005347     0.002309
     6       C      0.007438     0.011213    -0.010721
     7       C     -0.004925     0.002860    -0.000610
     8       C      0.002710     0.000679     0.009583
     9       C     -0.000470    -0.006241    -0.006405
    10       C      0.003387    -0.002167     0.005420
    11       C     -0.002286     0.011432     0.014095
    12       C      0.002296     0.004967    -0.009133
    13       H      0.001571    -0.001827     0.000914
    14       H      0.001028     0.002083     0.000053
    15       H     -0.000234    -0.000647    -0.002072
    16       H      0.000142     0.001604     0.001194
    17       H     -0.004796    -0.003290     0.006758
    18       H     -0.002072    -0.002507    -0.006372
    19       H     -0.004408    -0.000445    -0.003763
    20       H      0.004087    -0.001187    -0.002220
    21       H     -0.003530    -0.009575     0.008339
    22       H      0.003314     0.002428    -0.001599
    23       H      0.006078    -0.007207     0.001146
    24       H     -0.000519     0.001335     0.000430
    25       H      0.001640    -0.003151    -0.000177
    26       H      0.000383    -0.004292    -0.000640
    27       H     -0.005691     0.000396    -0.006444
    28       H     -0.006695    -0.003173    -0.002392
    29       H     -0.002841    -0.008755    -0.013295
    30       H      0.003738     0.004483     0.009995
    31       H     -0.000898    -0.004281     0.009744
    32       H     -0.001328     0.003652    -0.008388


          GRADIENT NORM =   0.04826


          TIME FOR SCF CALCULATION =    0.01

          TIME FOR DERIVATIVES     =    0.01

          MOLECULAR WEIGHT =  164.29



          ROTATIONAL CONSTANTS IN CM(-1)

          A =    0.03598666   B =    0.01325973   C =    0.01017125



           PRINCIPAL MOMENTS OF INERTIA IN UNITS OF 10**(-40)*GRAM-CM**2

          A =      777.8653   B =     2111.1125   C =     2752.1473


          ORIENTATION OF MOLECULE IN FORCE CALCULATION

    NO.       ATOM         X         Y         Z

     1          C      -0.9147    1.0361   -0.0211
     2          C       0.6474    1.0361   -0.0211
     3          C      -0.9029    2.5857   -0.0211
     4          C       0.6356    2.5848   -0.0735
     5          C      -3.0363   -1.1574    2.3412
     6          C       2.7255   -1.2754   -2.3081
     7          C      -2.9808   -2.6692    2.2913
     8          C       4.2311   -1.3778   -2.1901
     9          C      -1.5165    0.4283    1.1904
    10          C       1.2485    0.3870   -1.2113
    11          C      -2.4174   -0.5535    1.1302
    12          C       2.1339   -0.6063   -1.1179
    13          H      -1.3470    0.6040   -0.9491
    14          H       1.0799    0.6357    0.9210
    15          H      -1.3329    3.0484    0.8805
    16          H      -1.3970    3.0452   -0.8897
    17          H       1.0656    3.0167   -0.9902
    18          H       1.1297    3.0733    0.7790
    19          H      -2.5485   -0.7903    3.2664
    20          H      -4.0891   -0.8149    2.4016
    21          H       2.4535   -0.7452   -3.2428
    22          H       2.2790   -2.2864   -2.3964
    23          H      -1.9459   -3.0342    2.2642
    24          H      -3.4631   -3.1130    3.1715
    25          H      -3.4894   -3.0657    1.4025
    26          H       4.6622   -1.8973   -3.0553
    27          H       4.5317   -1.9316   -1.2907
    28          H       4.6997   -0.3869   -2.1342
    29          H      -2.7500   -0.9628    0.1673
    30          H      -1.1783    0.8333    2.1533
    31          H       2.4655   -0.9835   -0.1417
    32          H       0.9206    0.7685   -2.1873


    FIRST DERIVATIVES WILL BE USED IN THE CALCULATION OF SECOND DERIVATIVES

          ESTIMATED TIME TO COMPLETE CALCULATION =        9.26 SECONDS

    FOR POINT-GROUP C1   THERE ARE   1 UNIQUE SYMMETRY FUNCTIONS.

 STEP:   1 TIME =     0.06 SECS, INTEGRAL =      0.06 TIME LEFT: 172799.91
 STEP:   2 TIME =     0.06 SECS, INTEGRAL =      0.12 TIME LEFT: 172799.85
 STEP:   3 TIME =     0.06 SECS, INTEGRAL =      0.18 TIME LEFT: 172799.79
 STEP:   4 TIME =     0.06 SECS, INTEGRAL =      0.24 TIME LEFT: 172799.73
 STEP:   5 TIME =     0.07 SECS, INTEGRAL =      0.31 TIME LEFT: 172799.66
 STEP:   6 TIME =     0.07 SECS, INTEGRAL =      0.38 TIME LEFT: 172799.60
 STEP:   7 TIME =     0.06 SECS, INTEGRAL =      0.44 TIME LEFT: 172799.53
 STEP:   8 TIME =     0.06 SECS, INTEGRAL =      0.50 TIME LEFT: 172799.47
 STEP:   9 TIME =     0.06 SECS, INTEGRAL =      0.56 TIME LEFT: 172799.42
 STEP:  10 TIME =     0.06 SECS, INTEGRAL =      0.62 TIME LEFT: 172799.35
 STEP:  11 TIME =     0.07 SECS, INTEGRAL =      0.69 TIME LEFT: 172799.29
 STEP:  12 TIME =     0.06 SECS, INTEGRAL =      0.75 TIME LEFT: 172799.23
 STEP:  13 TIME =     0.06 SECS, INTEGRAL =      0.81 TIME LEFT: 172799.17
 STEP:  14 TIME =     0.06 SECS, INTEGRAL =      0.87 TIME LEFT: 172799.10
 STEP:  15 TIME =     0.06 SECS, INTEGRAL =      0.93 TIME LEFT: 172799.04
 STEP:  16 TIME =     0.06 SECS, INTEGRAL =      1.00 TIME LEFT: 172798.98
 STEP:  17 TIME =     0.06 SECS, INTEGRAL =      1.06 TIME LEFT: 172798.92
 STEP:  18 TIME =     0.06 SECS, INTEGRAL =      1.12 TIME LEFT: 172798.85
 STEP:  19 TIME =     0.06 SECS, INTEGRAL =      1.18 TIME LEFT: 172798.79
 STEP:  20 TIME =     0.06 SECS, INTEGRAL =      1.24 TIME LEFT: 172798.73
 STEP:  21 TIME =     0.06 SECS, INTEGRAL =      1.30 TIME LEFT: 172798.67
 STEP:  22 TIME =     0.06 SECS, INTEGRAL =      1.37 TIME LEFT: 172798.61
 STEP:  23 TIME =     0.06 SECS, INTEGRAL =      1.43 TIME LEFT: 172798.55
 STEP:  24 TIME =     0.06 SECS, INTEGRAL =      1.49 TIME LEFT: 172798.49
 STEP:  25 TIME =     0.06 SECS, INTEGRAL =      1.55 TIME LEFT: 172798.42
 STEP:  26 TIME =     0.06 SECS, INTEGRAL =      1.62 TIME LEFT: 172798.36
 STEP:  27 TIME =     0.06 SECS, INTEGRAL =      1.68 TIME LEFT: 172798.30
 STEP:  28 TIME =     0.06 SECS, INTEGRAL =      1.74 TIME LEFT: 172798.24
 STEP:  29 TIME =     0.07 SECS, INTEGRAL =      1.80 TIME LEFT: 172798.17
 STEP:  30 TIME =     0.06 SECS, INTEGRAL =      1.87 TIME LEFT: 172798.11
 STEP:  31 TIME =     0.06 SECS, INTEGRAL =      1.93 TIME LEFT: 172798.05
 STEP:  32 TIME =     0.06 SECS, INTEGRAL =      1.99 TIME LEFT: 172797.99
 STEP:  33 TIME =     0.06 SECS, INTEGRAL =      2.05 TIME LEFT: 172797.93
 STEP:  34 TIME =     0.06 SECS, INTEGRAL =      2.11 TIME LEFT: 172797.87
 STEP:  35 TIME =     0.07 SECS, INTEGRAL =      2.18 TIME LEFT: 172797.80
 STEP:  36 TIME =     0.06 SECS, INTEGRAL =      2.24 TIME LEFT: 172797.74
 STEP:  37 TIME =     0.06 SECS, INTEGRAL =      2.30 TIME LEFT: 172797.68
 STEP:  38 TIME =     0.06 SECS, INTEGRAL =      2.36 TIME LEFT: 172797.62
 STEP:  39 TIME =     0.09 SECS, INTEGRAL =      2.45 TIME LEFT: 172797.52
 STEP:  40 TIME =     0.10 SECS, INTEGRAL =      2.55 TIME LEFT: 172797.42
 STEP:  41 TIME =     0.10 SECS, INTEGRAL =      2.65 TIME LEFT: 172797.32
 STEP:  42 TIME =     0.06 SECS, INTEGRAL =      2.72 TIME LEFT: 172797.26
 STEP:  43 TIME =     0.06 SECS, INTEGRAL =      2.78 TIME LEFT: 172797.20
 STEP:  44 TIME =     0.07 SECS, INTEGRAL =      2.85 TIME LEFT: 172797.12
 STEP:  45 TIME =     0.09 SECS, INTEGRAL =      2.94 TIME LEFT: 172797.03
 STEP:  46 TIME =     0.07 SECS, INTEGRAL =      3.01 TIME LEFT: 172796.97
 STEP:  47 TIME =     0.06 SECS, INTEGRAL =      3.07 TIME LEFT: 172796.90
 STEP:  48 TIME =     0.06 SECS, INTEGRAL =      3.13 TIME LEFT: 172796.84
 STEP:  49 TIME =     0.06 SECS, INTEGRAL =      3.20 TIME LEFT: 172796.78
 STEP:  50 TIME =     0.06 SECS, INTEGRAL =      3.26 TIME LEFT: 172796.72
 STEP:  51 TIME =     0.06 SECS, INTEGRAL =      3.32 TIME LEFT: 172796.65
 STEP:  52 TIME =     0.06 SECS, INTEGRAL =      3.39 TIME LEFT: 172796.59
 STEP:  53 TIME =     0.06 SECS, INTEGRAL =      3.45 TIME LEFT: 172796.52
 STEP:  54 TIME =     0.06 SECS, INTEGRAL =      3.51 TIME LEFT: 172796.46
 STEP:  55 TIME =     0.07 SECS, INTEGRAL =      3.58 TIME LEFT: 172796.40
 STEP:  56 TIME =     0.06 SECS, INTEGRAL =      3.64 TIME LEFT: 172796.33
 STEP:  57 TIME =     0.06 SECS, INTEGRAL =      3.70 TIME LEFT: 172796.27
 STEP:  58 TIME =     0.06 SECS, INTEGRAL =      3.76 TIME LEFT: 172796.21
 STEP:  59 TIME =     0.06 SECS, INTEGRAL =      3.82 TIME LEFT: 172796.15
 STEP:  60 TIME =     0.06 SECS, INTEGRAL =      3.89 TIME LEFT: 172796.09
 STEP:  61 TIME =     0.07 SECS, INTEGRAL =      3.95 TIME LEFT: 172796.02
 STEP:  62 TIME =     0.06 SECS, INTEGRAL =      4.02 TIME LEFT: 172795.96
 STEP:  63 TIME =     0.06 SECS, INTEGRAL =      4.08 TIME LEFT: 172795.90
 STEP:  64 TIME =     0.06 SECS, INTEGRAL =      4.14 TIME LEFT: 172795.84
 STEP:  65 TIME =     0.06 SECS, INTEGRAL =      4.20 TIME LEFT: 172795.78
 STEP:  66 TIME =     0.06 SECS, INTEGRAL =      4.26 TIME LEFT: 172795.71
 STEP:  67 TIME =     0.06 SECS, INTEGRAL =      4.32 TIME LEFT: 172795.65
 STEP:  68 TIME =     0.06 SECS, INTEGRAL =      4.38 TIME LEFT: 172795.59
 STEP:  69 TIME =     0.07 SECS, INTEGRAL =      4.45 TIME LEFT: 172795.53
 STEP:  70 TIME =     0.07 SECS, INTEGRAL =      4.52 TIME LEFT: 172795.46
 STEP:  71 TIME =     0.08 SECS, INTEGRAL =      4.60 TIME LEFT: 172795.38
 STEP:  72 TIME =     0.07 SECS, INTEGRAL =      4.67 TIME LEFT: 172795.31
 STEP:  73 TIME =     0.06 SECS, INTEGRAL =      4.73 TIME LEFT: 172795.25
 STEP:  74 TIME =     0.06 SECS, INTEGRAL =      4.79 TIME LEFT: 172795.19
 STEP:  75 TIME =     0.06 SECS, INTEGRAL =      4.85 TIME LEFT: 172795.13
 STEP:  76 TIME =     0.06 SECS, INTEGRAL =      4.91 TIME LEFT: 172795.06
 STEP:  77 TIME =     0.06 SECS, INTEGRAL =      4.97 TIME LEFT: 172795.00
 STEP:  78 TIME =     0.06 SECS, INTEGRAL =      5.03 TIME LEFT: 172794.94
 STEP:  79 TIME =     0.07 SECS, INTEGRAL =      5.10 TIME LEFT: 172794.88
 STEP:  80 TIME =     0.06 SECS, INTEGRAL =      5.16 TIME LEFT: 172794.81
 STEP:  81 TIME =     0.06 SECS, INTEGRAL =      5.22 TIME LEFT: 172794.75
 STEP:  82 TIME =     0.06 SECS, INTEGRAL =      5.29 TIME LEFT: 172794.69
 STEP:  83 TIME =     0.06 SECS, INTEGRAL =      5.34 TIME LEFT: 172794.63
 STEP:  84 TIME =     0.06 SECS, INTEGRAL =      5.41 TIME LEFT: 172794.57
 STEP:  85 TIME =     0.07 SECS, INTEGRAL =      5.47 TIME LEFT: 172794.50
 STEP:  86 TIME =     0.07 SECS, INTEGRAL =      5.54 TIME LEFT: 172794.44
 STEP:  87 TIME =     0.06 SECS, INTEGRAL =      5.60 TIME LEFT: 172794.38
 STEP:  88 TIME =     0.07 SECS, INTEGRAL =      5.67 TIME LEFT: 172794.31
 STEP:  89 TIME =     0.06 SECS, INTEGRAL =      5.73 TIME LEFT: 172794.24
 STEP:  90 TIME =     0.06 SECS, INTEGRAL =      5.80 TIME LEFT: 172794.18
 STEP:  91 TIME =     0.07 SECS, INTEGRAL =      5.86 TIME LEFT: 172794.11
 STEP:  92 TIME =     0.06 SECS, INTEGRAL =      5.93 TIME LEFT: 172794.05
 STEP:  93 TIME =     0.06 SECS, INTEGRAL =      5.99 TIME LEFT: 172793.99
 STEP:  94 TIME =     0.06 SECS, INTEGRAL =      6.06 TIME LEFT: 172793.92
 STEP:  95 TIME =     0.06 SECS, INTEGRAL =      6.12 TIME LEFT: 172793.86
 STEP:  96 TIME =     0.06 SECS, INTEGRAL =      6.18 TIME LEFT: 172793.80

(To convert to Hartree/Bohr^2, multiply by (10^(-21) x N x a0^2)/(4.184 x 627.51) = 0.0642)


           FORCE MATRIX IN MILLIDYNES/ANGSTROM


                  C  1       C  2       C  3       C  4       C  5       C  6
 ------------------------------------------------------------------------------
     C    1  14.765364
     C    2   2.985493  14.766269
     C    3   3.399564   1.807625  14.392497
     C    4   1.807743   3.402243   3.754476  14.394094
     C    5   0.142435   0.018593   0.018415   0.001799  14.695086
     C    6   0.019051   0.142928   0.001730   0.017371   0.000538  14.695768
     C    7   0.019524   0.003442   0.001872   0.000649   4.408451   0.000419
     C    8   0.002325   0.018838   0.000527   0.003486   0.000472   4.409528
     C    9   5.073006   0.588794   0.589629   0.043352   0.821837   0.003161
     C   10   0.590112   5.072751   0.043466   0.587647   0.001971   0.822161
     C   11   0.853815   0.032681   0.034125   0.005025   4.963043   0.000554
     C   12   0.031297   0.853725   0.005041   0.035259   0.000665   4.963384
     H   13   4.402544   0.435416   0.425879   0.025851   0.001831   0.001202
     H   14   0.435627   4.402366   0.025924   0.425759   0.000909   0.001877
     H   15   0.452578   0.028924   4.680315   0.445461   0.001183   0.000296
     H   16   0.444470   0.029730   4.710143   0.444375   0.002403   0.000361
     H   17   0.028922   0.452808   0.445567   4.680419   0.000197   0.000881
     H   18   0.029615   0.444521   0.444624   4.710243   0.000329   0.002030
     H   19   0.002932   0.000321   0.000885   0.000174   4.442076   0.000131
     H   20   0.019108   0.002237   0.002983   0.000278   4.422282   0.000148
     H   21   0.000853   0.002985   0.000250   0.000482   0.000144   4.442001
     H   22   0.003213   0.019298   0.000339   0.001794   0.000204   4.422088
     H   23   0.000840   0.000235   0.000234   0.000187   0.460691   0.000235
     H   24   0.003388   0.000720   0.000387   0.000229   0.449653   0.000156
     H   25   0.000887   0.000258   0.000163   0.000226   0.464324   0.000114
     H   26   0.000367   0.003295   0.000191   0.000804   0.000178   0.449495
     H   27   0.000208   0.000902   0.000212   0.000240   0.000107   0.464462
     H   28   0.000268   0.000934   0.000222   0.000223   0.000137   0.460609
     H   29   0.085150   0.008489   0.007408   0.001034   0.430217   0.000292
     H   30   0.434094   0.017626   0.019562   0.001069   0.082316   0.000380
     H   31   0.008450   0.085428   0.000930   0.007671   0.000247   0.430171
     H   32   0.017145   0.434304   0.001098   0.020255   0.000260   0.082514


                  C  7       C  8       C  9       C 10       C 11       C 12
 ------------------------------------------------------------------------------
     C    7  14.346892
     C    8   0.000304  14.346632
     C    9   0.041446   0.001094  18.326198
     C   10   0.001322   0.041961   0.032189  18.324945
     C   11   0.717253   0.000735  10.677293   0.004885  18.184048
     C   12   0.000652   0.716499   0.004707  10.675611   0.001545  18.184596
     H   13   0.000772   0.000207   0.444598   0.036396   0.055299   0.002958
     H   14   0.000405   0.000765   0.036458   0.444594   0.002826   0.055441
     H   15   0.000259   0.000253   0.030336   0.003125   0.003107   0.000623
     H   16   0.000147   0.000235   0.031773   0.004102   0.003608   0.001063
     H   17   0.000299   0.000322   0.003174   0.030301   0.000600   0.002961
     H   18   0.000222   0.000636   0.004108   0.031521   0.000932   0.003962
     H   19   0.434979   0.000158   0.050257   0.000366   0.459584   0.000216
     H   20   0.445704   0.000201   0.032448   0.000348   0.409000   0.000195
     H   21   0.000225   0.435270   0.000294   0.050341   0.000143   0.459505
     H   22   0.000143   0.445481   0.000848   0.032112   0.000251   0.408272
     H   23   4.748462   0.000128   0.002416   0.000283   0.015875   0.000237
     H   24   4.750680   0.000102   0.007107   0.000456   0.052380   0.000108
     H   25   4.726100   0.000088   0.001840   0.000235   0.027361   0.000311
     H   26   0.000082   4.750085   0.000216   0.007160   0.000191   0.052558
     H   27   0.000090   4.725734   0.000276   0.002044   0.000196   0.027584
     H   28   0.000157   4.747761   0.000294   0.002554   0.000253   0.015810
     H   29   0.026450   0.000300   0.468787   0.001404   4.759117   0.000628
     H   30   0.008068   0.000216   4.751950   0.001630   0.468405   0.000615
     H   31   0.000338   0.026634   0.001367   0.468946   0.000598   4.759377
     H   32   0.000253   0.007997   0.001496   4.752063   0.000710   0.468476


                  H 13       H 14       H 15       H 16       H 17       H 18
 ------------------------------------------------------------------------------
     H   13   4.903362
     H   14   0.028485   4.903142
     H   15   0.030652   0.002575   5.308501
     H   16   0.027559   0.001214   0.555058   5.330257
     H   17   0.002575   0.030615   0.033005   0.023402   5.308566
     H   18   0.001213   0.027611   0.023432   0.032255   0.555086   5.330505
     H   19   0.000591   0.000242   0.000181   0.000198   0.000082   0.000081
     H   20   0.000441   0.000198   0.000318   0.000606   0.000038   0.000089
     H   21   0.000213   0.000610   0.000092   0.000089   0.000222   0.000094
     H   22   0.000361   0.000554   0.000052   0.000080   0.000184   0.000141
     H   23   0.000098   0.000122   0.000083   0.000133   0.000073   0.000106
     H   24   0.000228   0.000144   0.000119   0.000097   0.000071   0.000153
     H   25   0.000265   0.000119   0.000121   0.000100   0.000065   0.000086
     H   26   0.000112   0.000165   0.000063   0.000052   0.000141   0.000187
     H   27   0.000142   0.000221   0.000053   0.000053   0.000062   0.000083
     H   28   0.000123   0.000108   0.000082   0.000142   0.000136   0.000057
     H   29   0.029919   0.000785   0.000674   0.001223   0.000206   0.000193
     H   30   0.036140   0.017849   0.019618   0.001413   0.000839   0.000753
     H   31   0.000764   0.029935   0.000182   0.000195   0.000714   0.001260
     H   32   0.017089   0.036173   0.000816   0.000760   0.020364   0.001449


                  H 19       H 20       H 21       H 22       H 23       H 24
 ------------------------------------------------------------------------------
     H   19   5.053543
     H   20   0.565441   5.020646
     H   21   0.000044   0.000047   5.053588
     H   22   0.000050   0.000089   0.565339   5.020245
     H   23   0.024563   0.048716   0.000032   0.000034   5.485760
     H   24   0.030172   0.028571   0.000041   0.000106   0.572689   5.488440
     H   25   0.047438   0.023822   0.000037   0.000062   0.577265   0.570473
     H   26   0.000037   0.000057   0.030151   0.028627   0.000032   0.000031
     H   27   0.000041   0.000071   0.047528   0.023841   0.000041   0.000024
     H   28   0.000044   0.000052   0.024573   0.048455   0.000046   0.000057
     H   29   0.038274   0.017737   0.000071   0.000197   0.002594   0.001947
     H   30   0.030029   0.009491   0.000087   0.000109   0.000599   0.001610
     H   31   0.000104   0.000138   0.038245   0.017592   0.000126   0.000119
     H   32   0.000101   0.000109   0.030024   0.009511   0.000124   0.000107


                  H 25       H 26       H 27       H 28       H 29       H 30
 ------------------------------------------------------------------------------
     H   25   5.471345
     H   26   0.000059   5.488158
     H   27   0.000039   0.572331   5.471061
     H   28   0.000046   0.572994   0.577291   5.485683
     H   29   0.020132   0.000086   0.000071   0.000118   5.140296
     H   30   0.000597   0.000079   0.000059   0.000099   0.103500   5.132964
     H   31   0.000103   0.001961   0.020325   0.002606   0.000490   0.000597
     H   32   0.000110   0.001626   0.000599   0.000516   0.000561   0.000718


                  H 31       H 32
 ------------------------------
     H   31   5.140514
     H   32   0.103599   5.133102


          HEAT OF FORMATION =       3.192313 KCALS/MOLE

          ZERO POINT ENERGY     180.642 KCAL/MOL


           NORMAL COORDINATE ANALYSIS (Total motion = 1 Angstrom)


   Root No.       1         2         3         4         5         6         7         8

                 1 A       2 A       3 A       4 A       5 A       6 A       7 A       8 A   

                  31.0      49.7      61.9      85.6     100.2     111.6     129.6     165.6
  
           1    0.0018   -0.0074    0.0027    0.0184   -0.0007   -0.0038    0.0041    0.0053
           2   -0.0174    0.0101    0.0069   -0.0158    0.0024    0.0063    0.0076   -0.0020
           3    0.0007   -0.0021    0.0032    0.0001   -0.0123    0.0037    0.0075    0.0143
           4    0.0018   -0.0074    0.0027    0.0186   -0.0005   -0.0032    0.0033    0.0050
           5   -0.0203   -0.0128    0.0066    0.0151   -0.0031    0.0032    0.0082    0.0011
           6    0.0010    0.0048   -0.0007    0.0105    0.0072    0.0117   -0.0137    0.0096
           7    0.0047    0.0153    0.0030   -0.0122    0.0049   -0.0007    0.0046    0.0012
           8   -0.0173    0.0099    0.0068   -0.0155    0.0025    0.0061    0.0082   -0.0025
           9   -0.0032    0.0043   -0.0021   -0.0070   -0.0210   -0.0071    0.0335   -0.0158
          10    0.0048    0.0156    0.0027   -0.0116    0.0064   -0.0005    0.0026    0.0009
          11   -0.0200   -0.0124    0.0060    0.0147   -0.0027    0.0028    0.0081    0.0007
          12    0.0042    0.0113   -0.0162    0.0081    0.0229   -0.0011   -0.0197   -0.0225
          13   -0.0226   -0.0140    0.0179   -0.0184    0.0153   -0.0048   -0.0125   -0.0109
          14    0.0179    0.0017   -0.0073    0.0067   -0.0012   -0.0060   -0.0016   -0.0035
          15    0.0121   -0.0159    0.0029   -0.0128   -0.0009   -0.0091   -0.0160   -0.0031
          16    0.0216   -0.0053   -0.0126   -0.0157   -0.0069   -0.0016    0.0016   -0.0023
          17    0.0097   -0.0116   -0.0296   -0.0109    0.0053    0.0044   -0.0053    0.0094
          18   -0.0121    0.0056    0.0227    0.0052   -0.0071    0.0113   -0.0010   -0.0068
          19   -0.0385    0.0414   -0.0181    0.0061   -0.0170   -0.0110   -0.0168    0.0012
          20    0.0171    0.0029   -0.0077    0.0070   -0.0027   -0.0066   -0.0025   -0.0032
          21    0.0211    0.0086   -0.0245    0.0089    0.0193    0.0049    0.0232   -0.0112
          22    0.0248   -0.0019   -0.0058   -0.0132   -0.0074   -0.0006    0.0016   -0.0030
          23    0.0414    0.0213    0.0329    0.0018    0.0090   -0.0255    0.0045    0.0054
          24   -0.0255   -0.0084   -0.0106   -0.0189    0.0036   -0.0364    0.0113   -0.0024
          25   -0.0009   -0.0185    0.0060    0.0151   -0.0107   -0.0144    0.0082    0.0006
          26   -0.0093    0.0120    0.0062   -0.0183    0.0128    0.0114   -0.0105    0.0112
          27    0.0035   -0.0067    0.0044   -0.0031   -0.0121    0.0009    0.0005    0.0191
          28    0.0020   -0.0099   -0.0012    0.0274    0.0068   -0.0044   -0.0056   -0.0020
          29   -0.0148   -0.0154   -0.0086    0.0208    0.0091   -0.0063    0.0008   -0.0106
          30   -0.0021    0.0051    0.0059    0.0119    0.0043    0.0164   -0.0144    0.0129
          31   -0.0163   -0.0094    0.0131   -0.0040    0.0276    0.0138    0.0204    0.0084
          32    0.0045    0.0041   -0.0003   -0.0004   -0.0228   -0.0145   -0.0215    0.0043
          33    0.0086   -0.0124    0.0041   -0.0090   -0.0056   -0.0038   -0.0092    0.0114
          34    0.0182   -0.0065   -0.0079   -0.0023   -0.0154    0.0367   -0.0069   -0.0032
          35   -0.0008   -0.0123   -0.0136   -0.0059   -0.0111    0.0302    0.0002   -0.0121
          36   -0.0077    0.0054    0.0160    0.0092   -0.0021    0.0163   -0.0087    0.0055
          37    0.0007   -0.0103    0.0012    0.0346    0.0068    0.0012   -0.0051    0.0079
          38   -0.0199    0.0202    0.0054   -0.0285   -0.0035    0.0024    0.0253   -0.0171
          39    0.0025   -0.0055    0.0045   -0.0017   -0.0128    0.0029    0.0034    0.0196
          40    0.0014   -0.0178    0.0045    0.0231   -0.0120   -0.0073    0.0128    0.0119
          41   -0.0243   -0.0231    0.0171    0.0240   -0.0167    0.0087    0.0148    0.0177
          42   -0.0006    0.0053    0.0030    0.0120    0.0066    0.0157   -0.0150    0.0129
          43    0.0009    0.0179    0.0119   -0.0304   -0.0206   -0.0032    0.0380    0.0040
          44   -0.0140    0.0127    0.0095   -0.0201    0.0108    0.0135   -0.0082    0.0140
          45   -0.0066    0.0041    0.0007   -0.0133   -0.0376   -0.0121    0.0581   -0.0230
          46    0.0099    0.0261   -0.0052   -0.0128    0.0326    0.0036   -0.0270   -0.0040
          47   -0.0188    0.0206    0.0044   -0.0295   -0.0022    0.0010    0.0251   -0.0210
          48   -0.0070    0.0038    0.0013   -0.0140   -0.0394   -0.0122    0.0606   -0.0227
          49    0.0103    0.0261   -0.0061   -0.0109    0.0355    0.0038   -0.0308   -0.0045
          50   -0.0188   -0.0150   -0.0037    0.0225    0.0067   -0.0062    0.0026   -0.0174
          51    0.0074    0.0150   -0.0249    0.0121    0.0411   -0.0034   -0.0381   -0.0337
          52    0.0014    0.0188    0.0109   -0.0301   -0.0174   -0.0028    0.0341    0.0035
          53   -0.0230   -0.0232    0.0149    0.0254   -0.0144    0.0092    0.0129    0.0203
          54    0.0079    0.0156   -0.0261    0.0126    0.0436   -0.0035   -0.0408   -0.0353
          55   -0.0189   -0.0465    0.0407   -0.0422    0.0205   -0.0174   -0.0408   -0.0326
          56    0.0182    0.0332   -0.0345    0.0267    0.0000   -0.0005    0.0181   -0.0039
          57    0.0101   -0.0113    0.0017   -0.0081   -0.0040   -0.0046   -0.0088    0.0082
          58   -0.0190   -0.0274    0.0267   -0.0247    0.0220   -0.0045   -0.0138   -0.0148
          59    0.0295   -0.0348    0.0158   -0.0084    0.0209   -0.0015    0.0023   -0.0116
          60    0.0099   -0.0432    0.0250   -0.0382   -0.0073   -0.0278   -0.0564   -0.0238
          61    0.0022   -0.0256   -0.0556   -0.0348   -0.0014   -0.0196    0.0047    0.0032
          62    0.0026   -0.0260   -0.0699   -0.0210    0.0169   -0.0055   -0.0129    0.0320
          63   -0.0104    0.0033    0.0123    0.0049   -0.0021    0.0107   -0.0061    0.0042
          64    0.0420    0.0149    0.0238   -0.0097   -0.0032   -0.0238    0.0078   -0.0037
          65    0.0002   -0.0216   -0.0493   -0.0149    0.0053    0.0114   -0.0084    0.0125
          66   -0.0067    0.0195    0.0659    0.0209   -0.0239    0.0406    0.0029   -0.0331
          67   -0.0421    0.0549   -0.0270    0.0123   -0.0248   -0.0123   -0.0172    0.0048
          68    0.0063    0.0394   -0.0311    0.0226   -0.0256   -0.0118   -0.0082    0.0041
          69    0.0274    0.0345   -0.0503    0.0379    0.0290    0.0255    0.0882    0.0292
          70   -0.0466    0.0400   -0.0117   -0.0075   -0.0308   -0.0278   -0.0663   -0.0322
          71    0.0271   -0.0007   -0.0119    0.0115    0.0195    0.0036    0.0216   -0.0126
          72    0.0216    0.0061   -0.0231    0.0038    0.0230    0.0008    0.0084   -0.0343
          73   -0.0388    0.0729   -0.0439    0.0328   -0.0215    0.0020    0.0291    0.0407
          74    0.0173   -0.0289    0.0193   -0.0127   -0.0038   -0.0122   -0.0221   -0.0008
          75    0.0212    0.0048   -0.0218    0.0024    0.0223    0.0000    0.0058   -0.0349
          76    0.0277    0.0005   -0.0066   -0.0242    0.0016   -0.0414    0.0117    0.0073
          77    0.0486    0.0223    0.0220   -0.0073    0.0224   -0.0554    0.0021    0.0835
          78   -0.0284   -0.0078   -0.0045   -0.0190    0.0001   -0.0388    0.0179   -0.0441
          79    0.0443    0.0186    0.0373    0.0059   -0.0129    0.0178   -0.0021   -0.0096
          80    0.0494    0.0360    0.0732    0.0167   -0.0021   -0.0109    0.0118   -0.0726
          81   -0.0272   -0.0062   -0.0002   -0.0162   -0.0014   -0.0336    0.0170   -0.0483
          82    0.0049   -0.0221   -0.0429   -0.0196   -0.0115    0.0232   -0.0051   -0.0077
          83    0.0512    0.0316    0.0528    0.0060    0.0100   -0.0345    0.0078    0.0025
          84   -0.0317   -0.0223   -0.0536   -0.0409    0.0211   -0.0759    0.0091    0.0898
          85   -0.0259    0.0038    0.0156   -0.0114    0.0665    0.0491    0.0447    0.0281
          86    0.0075   -0.0027   -0.0010    0.0107   -0.0643   -0.0404   -0.0347    0.0003
          87    0.0107   -0.0140    0.0034   -0.0111   -0.0014   -0.0051   -0.0120    0.0058
          88    0.0089   -0.0323    0.0035    0.0242   -0.0502   -0.0477   -0.0097   -0.0126
          89   -0.0133    0.0184    0.0091   -0.0314    0.0520    0.0371   -0.0049    0.0227
          90    0.0018   -0.0046    0.0040   -0.0008   -0.0146    0.0017    0.0045    0.0184
          91    0.0309   -0.0031   -0.0087   -0.0215   -0.0391    0.0889   -0.0102   -0.0003
          92    0.0045   -0.0093   -0.0052   -0.0273   -0.0390    0.0736    0.0054   -0.0219
          93   -0.0101    0.0054    0.0195    0.0073   -0.0049    0.0151   -0.0053    0.0003
          94   -0.0106   -0.0133    0.0008    0.0517    0.0309   -0.0485   -0.0070   -0.0032
          95   -0.0208   -0.0186   -0.0166    0.0428    0.0361   -0.0485   -0.0032   -0.0103
          96   -0.0002    0.0049    0.0021    0.0121    0.0067    0.0144   -0.0153    0.0130


   Root No.       9        10        11        12        13        14        15        16

                 9 A      10 A      11 A      12 A      13 A      14 A      15 A      16 A   

                 189.1     207.7     240.9     290.1     325.4     371.2     400.0     463.6
  
           1   -0.0007   -0.0057   -0.0051   -0.0134   -0.0065   -0.0133   -0.0111   -0.0003
           2    0.0033    0.0020    0.0060    0.0038   -0.0071    0.0202   -0.0091    0.0075
           3   -0.0071   -0.0126   -0.0063   -0.0007   -0.0097   -0.0014   -0.0199   -0.0263
           4   -0.0002   -0.0055   -0.0033   -0.0086   -0.0134   -0.0147   -0.0145    0.0056
           5    0.0040   -0.0007    0.0011    0.0001   -0.0085    0.0057   -0.0188    0.0123
           6   -0.0006   -0.0068    0.0081   -0.0148   -0.0012   -0.0129   -0.0167   -0.0119
           7   -0.0004   -0.0030    0.0008   -0.0148   -0.0262   -0.0015    0.0148   -0.0020
           8    0.0038    0.0022    0.0064    0.0033   -0.0108    0.0225   -0.0065    0.0107
           9    0.0140    0.0033    0.0084    0.0173    0.0179   -0.0156   -0.0005    0.0021
          10   -0.0010   -0.0025   -0.0004   -0.0163   -0.0254    0.0002    0.0140   -0.0018
          11    0.0040   -0.0005    0.0011    0.0025   -0.0057    0.0072   -0.0260    0.0158
          12   -0.0037    0.0136   -0.0186    0.0054    0.0159    0.0072   -0.0147    0.0084
          13    0.0039    0.0168    0.0137   -0.0110    0.0128   -0.0064   -0.0130   -0.0189
          14    0.0033    0.0013   -0.0013   -0.0007    0.0295   -0.0142    0.0029   -0.0073
          15   -0.0041    0.0082    0.0062    0.0094   -0.0121   -0.0109    0.0103    0.0177
          16   -0.0021   -0.0014    0.0039    0.0206    0.0022    0.0110   -0.0146   -0.0120
          17   -0.0034   -0.0105    0.0189   -0.0184    0.0094    0.0054    0.0228   -0.0081
          18    0.0075    0.0101   -0.0057    0.0009   -0.0006    0.0086    0.0220   -0.0241
          19   -0.0009   -0.0002   -0.0002    0.0022    0.0097   -0.0084    0.0013   -0.0028
          20    0.0031    0.0010   -0.0016   -0.0004    0.0328   -0.0163    0.0035   -0.0097
          21    0.0128   -0.0002    0.0059   -0.0088   -0.0198    0.0132   -0.0082   -0.0017
          22   -0.0009    0.0000    0.0025    0.0239    0.0018    0.0125   -0.0188   -0.0153
          23    0.0003   -0.0016   -0.0015   -0.0132    0.0002   -0.0058    0.0054    0.0080
          24   -0.0081   -0.0031   -0.0106   -0.0186   -0.0041   -0.0124    0.0009    0.0120
          25   -0.0037    0.0034   -0.0127   -0.0192    0.0283    0.0286    0.0136    0.0051
          26   -0.0095   -0.0057   -0.0027    0.0240   -0.0004   -0.0089   -0.0071    0.0007
          27   -0.0162   -0.0124   -0.0155    0.0101    0.0022    0.0095   -0.0033   -0.0192
          28    0.0054   -0.0004    0.0142    0.0288   -0.0158   -0.0055    0.0157    0.0175
          29   -0.0023    0.0021   -0.0078    0.0133   -0.0282   -0.0090    0.0213   -0.0199
          30    0.0066   -0.0055    0.0237   -0.0091    0.0109   -0.0005   -0.0117    0.0118
          31   -0.0056   -0.0077   -0.0156    0.0038    0.0370    0.0070    0.0128    0.0030
          32   -0.0078    0.0044   -0.0004    0.0029   -0.0026    0.0090   -0.0064   -0.0010
          33   -0.0153   -0.0030   -0.0095    0.0189   -0.0083    0.0066    0.0190    0.0260
          34    0.0066    0.0055   -0.0009    0.0025   -0.0025   -0.0090    0.0032    0.0278
          35   -0.0011    0.0077   -0.0220   -0.0133   -0.0169   -0.0135    0.0169   -0.0116
          36    0.0109    0.0030    0.0168   -0.0074    0.0131    0.0115    0.0262    0.0012
          37    0.0023   -0.0080    0.0016   -0.0207   -0.0140   -0.0323   -0.0276    0.0015
          38    0.0152    0.0093    0.0160    0.0070   -0.0051    0.0253    0.0016    0.0182
          39   -0.0138   -0.0144   -0.0137    0.0022   -0.0070    0.0052   -0.0160   -0.0309
          40   -0.0051   -0.0118   -0.0140   -0.0146   -0.0174   -0.0204   -0.0307   -0.0084
          41    0.0080   -0.0103    0.0144   -0.0057   -0.0080   -0.0006   -0.0361    0.0173
          42    0.0034   -0.0076    0.0184   -0.0143    0.0017   -0.0119   -0.0156   -0.0030
          43    0.0118   -0.0086    0.0216   -0.0072   -0.0286   -0.0159    0.0349   -0.0061
          44   -0.0099   -0.0063   -0.0031   -0.0078   -0.0326    0.0397   -0.0146   -0.0107
          45    0.0270    0.0050    0.0235    0.0272    0.0286   -0.0322    0.0133    0.0116
          46   -0.0118    0.0042   -0.0155   -0.0231   -0.0328    0.0215    0.0124    0.0001
          47    0.0175    0.0120    0.0196    0.0160    0.0032    0.0133    0.0160    0.0317
          48    0.0280    0.0045    0.0250    0.0289    0.0294   -0.0341    0.0132    0.0121
          49   -0.0133    0.0051   -0.0187   -0.0253   -0.0302    0.0233    0.0104    0.0021
          50    0.0008    0.0113   -0.0186    0.0165    0.0071    0.0197   -0.0354    0.0344
          51   -0.0111    0.0229   -0.0369    0.0078    0.0204    0.0245   -0.0218    0.0197
          52    0.0101   -0.0078    0.0190   -0.0101   -0.0280   -0.0118    0.0353   -0.0101
          53    0.0071   -0.0137    0.0179   -0.0081   -0.0148   -0.0145   -0.0324    0.0021
          54   -0.0121    0.0243   -0.0398    0.0080    0.0225    0.0271   -0.0237    0.0216
          55    0.0160    0.0406    0.0425   -0.0264    0.0008   -0.0317   -0.0400   -0.0495
          56    0.0108   -0.0093   -0.0073   -0.0038    0.0326   -0.0074    0.0049   -0.0073
          57   -0.0132   -0.0001   -0.0063    0.0183   -0.0071   -0.0004    0.0229    0.0326
          58    0.0057    0.0214    0.0181   -0.0143    0.0156   -0.0107   -0.0168   -0.0255
          59    0.0071    0.0113    0.0067   -0.0087    0.0414   -0.0211   -0.0036   -0.0221
          60    0.0058    0.0335    0.0373   -0.0036   -0.0340   -0.0382   -0.0188   -0.0104
          61   -0.0117   -0.0131    0.0135    0.0123    0.0081    0.0125   -0.0196   -0.0087
          62   -0.0037   -0.0274    0.0582   -0.0316    0.0362    0.0215    0.0336    0.0064
          63    0.0099    0.0039    0.0133   -0.0042    0.0124    0.0168    0.0287   -0.0167
          64   -0.0009    0.0023   -0.0054    0.0292   -0.0011    0.0107   -0.0319   -0.0147
          65   -0.0041   -0.0140    0.0267   -0.0236    0.0136    0.0070    0.0305   -0.0048
          66    0.0109    0.0315   -0.0487    0.0136   -0.0311   -0.0103    0.0203   -0.0405
          67   -0.0035   -0.0030   -0.0033    0.0058    0.0101   -0.0103    0.0059    0.0020
[...]
 RED. MASS   2.6829        C  5 --  C 11           +7.3% ( 39.8%)    54.7%
 EFF. MASS  11.8029

 VIBRATION   71   71A       ATOM PAIR        ENERGY CONTRIBUTION    RADIAL
 FREQ.      2940.24        C  2 --  H 14          +48.0% ( 71.0%)   100.0%
 T-DIPOLE    0.0405        C  1 --  H 13          +47.0% ( 70.2%)   100.0%
 TRAVEL      0.1254        C  1 --  C  2           +1.2% ( 11.2%)    16.6%
 RED. MASS   0.4603        C  2 --  C 10           +0.6% (  7.6%)    13.5%
 EFF. MASS   1.4585

 VIBRATION   72   72A       ATOM PAIR        ENERGY CONTRIBUTION    RADIAL
 FREQ.      2945.29        C  6 --  H 22          +52.2% ( 75.0%)    96.8%
 T-DIPOLE    0.0203        C  6 --  H 21          +45.0% ( 69.6%)    96.1%
 TRAVEL      0.1218        C  6 --  C  8           +1.2% ( 11.2%)     0.0%
 RED. MASS   0.5153        C  6 --  C 12           +1.1% ( 11.1%)     0.2%
 EFF. MASS   1.5435

 VIBRATION   73   73A       ATOM PAIR        ENERGY CONTRIBUTION    RADIAL
 FREQ.      2945.35        C  5 --  H 20          +52.1% ( 75.0%)    96.8%
 T-DIPOLE    0.0183        C  5 --  H 19          +45.0% ( 69.7%)    96.1%
 TRAVEL      0.1218        C  5 --  C  7           +1.2% ( 11.2%)     0.0%
 RED. MASS   0.5151        C  5 --  C 11           +1.1% ( 11.1%)     0.2%
 EFF. MASS   1.5436

 VIBRATION   74   74A       ATOM PAIR        ENERGY CONTRIBUTION    RADIAL
 FREQ.      2946.92        C  1 --  H 13          +48.1% ( 70.8%)   100.0%
 T-DIPOLE    0.1201        C  2 --  H 14          +47.0% ( 70.0%)   100.0%
 TRAVEL      0.1258        C  1 --  C  2           +0.9% (  9.9%)     0.0%
 RED. MASS   0.4595        C  1 --  C  9           +0.6% (  7.6%)    13.8%
 EFF. MASS   1.4467

 VIBRATION   75   75A       ATOM PAIR        ENERGY CONTRIBUTION    RADIAL
 FREQ.      3024.61        C  6 --  H 21          +49.4% ( 69.4%)    98.1%
 T-DIPOLE    0.0484        C  6 --  H 22          +43.3% ( 64.9%)    97.3%
 TRAVEL      0.1316        C 12 --  H 31           +1.9% ( 13.5%)    99.8%
 RED. MASS   0.4318        C  5 --  H 19           +1.4% ( 11.5%)    98.0%
 EFF. MASS   1.2876

 VIBRATION   76   76A       ATOM PAIR        ENERGY CONTRIBUTION    RADIAL
 FREQ.      3024.64        C  5 --  H 19          +49.4% ( 69.3%)    98.1%
 T-DIPOLE    0.0454        C  5 --  H 20          +43.4% ( 65.0%)    97.3%
 TRAVEL      0.1316        C 11 --  H 29           +1.8% ( 13.3%)    99.8%
 RED. MASS   0.4319        C  6 --  H 21           +1.4% ( 11.6%)    98.1%
 EFF. MASS   1.2874

 VIBRATION   77   77A       ATOM PAIR        ENERGY CONTRIBUTION    RADIAL
 FREQ.      3030.80        C  3 --  H 15          +26.4% ( 53.8%)    97.2%
 T-DIPOLE    0.0206        C  4 --  H 17          +26.4% ( 53.7%)    97.2%
 TRAVEL      0.1196        C  3 --  H 16          +21.6% ( 48.7%)    96.1%
 RED. MASS   0.2598        C  4 --  H 18          +21.6% ( 48.6%)    96.0%
 EFF. MASS   1.5544

 VIBRATION   78   78A       ATOM PAIR        ENERGY CONTRIBUTION    RADIAL
 FREQ.      3033.32        C  9 --  H 30          +68.0% ( 83.4%)   100.0%
 T-DIPOLE    0.3577        C 10 --  H 32          +16.2% ( 40.7%)   100.0%
 TRAVEL      0.1234        C 11 --  H 29          +10.9% ( 33.3%)   100.0%
 RED. MASS   0.4873        C 12 --  H 31           +2.5% ( 15.8%)    99.9%
 EFF. MASS   1.4593

 VIBRATION   79   79A       ATOM PAIR        ENERGY CONTRIBUTION    RADIAL
 FREQ.      3033.40        C 10 --  H 32          +68.1% ( 83.5%)   100.0%
 T-DIPOLE    0.2731        C  9 --  H 30          +15.9% ( 40.3%)   100.0%
 TRAVEL      0.1234        C 12 --  H 31          +10.7% ( 33.1%)   100.0%
 RED. MASS   0.4881        C 11 --  H 29           +2.7% ( 16.6%)   100.0%
 EFF. MASS   1.4594

 VIBRATION   80   80A       ATOM PAIR        ENERGY CONTRIBUTION    RADIAL
 FREQ.      3036.20        C 11 --  H 29          +68.7% ( 84.2%)   100.0%
 T-DIPOLE    0.1594        C 12 --  H 31          +12.8% ( 36.3%)   100.0%
 TRAVEL      0.1194        C  9 --  H 30          +10.6% ( 33.0%)    99.8%
 RED. MASS   0.4970        C 10 --  H 32           +1.8% ( 13.6%)    99.7%
 EFF. MASS   1.5576

 VIBRATION   81   81A       ATOM PAIR        ENERGY CONTRIBUTION    RADIAL
 FREQ.      3036.28        C 12 --  H 31          +68.8% ( 84.3%)   100.0%
 T-DIPOLE    0.1198        C 11 --  H 29          +12.5% ( 36.0%)   100.0%
 TRAVEL      0.1194        C 10 --  H 32          +10.4% ( 32.8%)    99.8%
 RED. MASS   0.4981        C  9 --  H 30           +2.0% ( 14.4%)    99.8%
 EFF. MASS   1.5579

 VIBRATION   82   82A       ATOM PAIR        ENERGY CONTRIBUTION    RADIAL
 FREQ.      3045.38        C  4 --  H 17          +27.1% ( 54.0%)    97.6%
 T-DIPOLE    0.0972        C  3 --  H 15          +27.0% ( 53.9%)    97.6%
 TRAVEL      0.1202        C  4 --  H 18          +21.2% ( 47.8%)    96.2%
 RED. MASS   0.2605        C  3 --  H 16          +21.2% ( 47.8%)    96.2%
 EFF. MASS   1.5318

 VIBRATION   83   83A       ATOM PAIR        ENERGY CONTRIBUTION    RADIAL
 FREQ.      3081.44        C  8 --  H 27          +63.3% ( 82.1%)    98.8%
 T-DIPOLE    0.0095        C  8 --  H 28          +26.2% ( 52.8%)    91.5%
 TRAVEL      0.1207        C  8 --  H 26           +7.1% ( 27.6%)    66.0%
 RED. MASS   0.5011        C  7 --  H 25           +1.4% ( 12.1%)    98.7%
 EFF. MASS   1.5012

 VIBRATION   84   84A       ATOM PAIR        ENERGY CONTRIBUTION    RADIAL
 FREQ.      3081.46        C  7 --  H 25          +62.9% ( 81.8%)    98.7%
 T-DIPOLE    0.0077        C  7 --  H 23          +27.3% ( 53.9%)    92.0%
 TRAVEL      0.1207        C  7 --  H 24           +6.5% ( 26.2%)    63.1%
 RED. MASS   0.5007        C  8 --  H 27           +1.4% ( 12.1%)    98.8%
 EFF. MASS   1.5014

 VIBRATION   85   85A       ATOM PAIR        ENERGY CONTRIBUTION    RADIAL
 FREQ.      3086.06        C  8 --  H 26          +57.3% ( 78.1%)    98.2%
 T-DIPOLE    0.0105        C  8 --  H 28          +38.0% ( 63.6%)    95.0%
 TRAVEL      0.1205        C  8 --  H 27           +3.2% ( 18.4%)    38.6%
 RED. MASS   0.5026        C  6 --  C  8           +1.0% ( 10.3%)     0.1%
 EFF. MASS   1.5041

 VIBRATION   86   86A       ATOM PAIR        ENERGY CONTRIBUTION    RADIAL
 FREQ.      3086.16        C  7 --  H 24          +58.1% ( 78.6%)    98.2%
 T-DIPOLE    0.0082        C  7 --  H 23          +36.8% ( 62.6%)    94.7%
 TRAVEL      0.1205        C  7 --  H 25           +3.6% ( 19.6%)    43.2%
 RED. MASS   0.5025        C  5 --  C  7           +1.0% ( 10.3%)     0.1%
 EFF. MASS   1.5043

 VIBRATION   87   87A       ATOM PAIR        ENERGY CONTRIBUTION    RADIAL
 FREQ.      3104.70        C  3 --  H 16          +28.7% ( 53.1%)    97.9%
 T-DIPOLE    0.0668        C  4 --  H 18          +26.7% ( 51.3%)    97.9%
 TRAVEL      0.1303        C  3 --  H 15          +22.1% ( 46.6%)    96.2%
 RED. MASS   0.2460        C  4 --  H 17          +20.5% ( 44.9%)    96.2%
 EFF. MASS   1.2801

 VIBRATION   88   88A       ATOM PAIR        ENERGY CONTRIBUTION    RADIAL
 FREQ.      3106.24        C  4 --  H 18          +28.1% ( 52.6%)    97.8%
 T-DIPOLE    0.0864        C  3 --  H 16          +26.1% ( 50.7%)    97.8%
 TRAVEL      0.1298        C  4 --  H 17          +22.6% ( 47.1%)    96.4%
 RED. MASS   0.2447        C  3 --  H 15          +21.0% ( 45.5%)    96.4%
 EFF. MASS   1.2879

 VIBRATION   89   89A       ATOM PAIR        ENERGY CONTRIBUTION    RADIAL
 FREQ.      3183.08        C  7 --  H 23          +34.5% ( 56.5%)    97.4%
 T-DIPOLE    0.0175        C  7 --  H 24          +34.3% ( 56.4%)    97.3%
 TRAVEL      0.1366        C  7 --  H 25          +30.9% ( 53.5%)    96.7%
 RED. MASS   0.3274        C  5 --  C  7           +0.3% (  5.1%)    99.8%
 EFF. MASS   1.1359

 VIBRATION   90   90A       ATOM PAIR        ENERGY CONTRIBUTION    RADIAL
 FREQ.      3183.12        C  8 --  H 28          +34.4% ( 56.4%)    97.3%
 T-DIPOLE    0.0203        C  8 --  H 26          +34.4% ( 56.4%)    97.3%
 TRAVEL      0.1366        C  8 --  H 27          +30.9% ( 53.5%)    96.7%
 RED. MASS   0.3274        C  6 --  C  8           +0.3% (  5.1%)    99.8%
 EFF. MASS   1.1359

 SYMMETRY NUMBER FOR POINT-GROUP C1  =  1


          SYSTEM IS A GROUND STATE


    NULL



          MOLECULE IS NOT LINEAR

          THERE ARE 90 GENUINE VIBRATIONS IN THIS SYSTEM
          THIS THERMODYNAMICS CALCULATION IS LIMITED TO
          MOLECULES WHICH HAVE NO INTERNAL ROTATIONS




                    CALCULATED THERMODYNAMIC PROPERTIES
                                          *
   TEMP. (K)   PARTITION FUNCTION   H.O.F.    ENTHALPY  HEAT CAPACITY ENTROPY
                                   KCAL/MOL   CAL/MOLE    CAL/K/MOL  CAL/K/MOL


 298.00  VIB.     0.1637D+06                  7074.3849    45.5849    47.5976
         ROT.     0.2398D+07                   888.2813     2.9808    32.1733
         INT.     0.3926D+12                  7962.6662    48.5657    79.7710
         TRA.     0.2036D+28                  1480.4688     4.9680    41.1956
         TOT.                        3.192    9443.1351    53.5338   120.9666

 200.00  VIB.     0.2937D+04                  3373.9288    30.5908    32.7381
         ROT.     0.1319D+07                   596.1620     2.9808    30.9846
         INT.     0.3873D+10                  3970.0907    33.5716    63.7227
         TRA.     0.1119D+28                   993.6033     4.9680    39.2145
         TOT.                       -1.287    4963.6940    38.5396   102.9372

 210.00  VIB.     0.4482D+04                  3686.4708    31.9254    34.2627
         ROT.     0.1419D+07                   625.9700     2.9808    31.1301
         INT.     0.6359D+10                  4312.4408    34.9062    65.3928
         TRA.     0.1204D+28                  1043.2834     4.9680    39.4569
         TOT.                       -0.895    5355.7242    39.8743   104.8497

 220.00  VIB.     0.6814D+04                  4012.5983    33.3082    35.7796
         ROT.     0.1521D+07                   655.7781     2.9808    31.2687
         INT.     0.1037D+11                  4668.3764    36.2890    67.0484
         TRA.     0.1291D+28                  1092.9636     4.9680    39.6880
         TOT.                       -0.489    5761.3400    41.2570   106.7364

 230.00  VIB.     0.1033D+05                  4352.7987    34.7400    37.2916
         ROT.     0.1626D+07                   685.5862     2.9808    31.4013
         INT.     0.1679D+11                  5038.3849    37.7208    68.6929
         TRA.     0.1380D+28                  1142.6437     4.9680    39.9088
         TOT.                       -0.070    6181.0287    42.6888   108.6017

 240.00  VIB.     0.1560D+05                  4707.5596    36.2201    38.8013
         ROT.     0.1733D+07                   715.3943     2.9808    31.5281
         INT.     0.2704D+11                  5422.9540    39.2009    70.3294
         TRA.     0.1471D+28                  1192.3239     4.9680    40.1203
         TOT.                        0.364    6615.2779    44.1689   110.4497

 250.00  VIB.     0.2351D+05                  5077.3532    37.7461    40.3106
         ROT.     0.1843D+07                   745.2024     2.9808    31.6498
         INT.     0.4331D+11                  5822.5556    40.7269    71.9604
         TRA.     0.1564D+28                  1242.0041     4.9680    40.3231
         TOT.                        0.814    7064.5597    45.6949   112.2835

 260.00  VIB.     0.3534D+05                  5462.6232    39.3147    41.8215
         ROT.     0.1954D+07                   775.0105     2.9808    31.7667
         INT.     0.6906D+11                  6237.6338    42.2955    73.5882
         TRA.     0.1659D+28                  1291.6842     4.9680    40.5179
         TOT.                        1.278    7529.3180    47.2635   114.1061

 270.00  VIB.     0.5302D+05                  5863.7759    40.9218    43.3352
         ROT.     0.2068D+07                   804.8186     2.9808    31.8792
         INT.     0.1097D+12                  6668.5946    43.9027    75.2144
         TRA.     0.1756D+28                  1341.3644     4.9680    40.7054
         TOT.                        1.759    8009.9590    48.8707   115.9199

 280.00  VIB.     0.7940D+05                  6281.1727    42.5627    44.8530
         ROT.     0.2184D+07                   834.6267     2.9808    31.9876
         INT.     0.1734D+12                  7115.7994    45.5435    76.8406
         TRA.     0.1854D+28                  1391.0445     4.9680    40.8861
         TOT.                        2.256    8506.8439    50.5115   117.7268

 290.00  VIB.     0.1187D+06                  6715.1255    44.2322    46.3757
         ROT.     0.2302D+07                   864.4348     2.9808    32.0922
         INT.     0.2734D+12                  7579.5603    47.2130    78.4679
         TRA.     0.1954D+28                  1440.7247     4.9680    41.0604
         TOT.                        2.769    9020.2850    52.1810   119.5283

 300.00  VIB.     0.1774D+06                  7165.8949    45.9251    47.9037
         ROT.     0.2422D+07                   894.2429     2.9808    32.1933
         INT.     0.4297D+12                  8060.1378    48.9059    80.0969
         TRA.     0.2056D+28                  1490.4049     4.9680    41.2289
         TOT.                        3.300    9550.5427    53.8740   121.3258

 310.00  VIB.     0.2647D+06                  7633.6887    47.6362    49.4374
         ROT.     0.2544D+07                   924.0510     2.9808    32.2910
         INT.     0.6734D+12                  8557.7398    50.6171    81.7284
         TRA.     0.2160D+28                  1540.0850     4.9680    41.3918
         TOT.                        3.847   10097.8248    55.5851   123.1202

 320.00  VIB.     0.3946D+06                  8118.6633    49.3604    50.9770
         ROT.     0.2669D+07                   953.8591     2.9808    32.3856
         INT.     0.1053D+13                  9072.5224    52.3412    83.3626
         TRA.     0.2265D+28                  1589.7652     4.9680    41.5495
         TOT.                        4.411   10662.2876    57.3093   124.9121

 330.00  VIB.     0.5878D+06                  8620.9248    51.0928    52.5224
         ROT.     0.2795D+07                   983.6672     2.9808    32.4774
         INT.     0.1643D+13                  9604.5920    54.0736    84.9998
         TRA.     0.2372D+28                  1639.4454     4.9680    41.7024
         TOT.                        4.993   11244.0374    59.0417   126.7021

 340.00  VIB.     0.8753D+06                  9140.5320    52.8288    54.0735
         ROT.     0.2923D+07                  1013.4753     2.9808    32.5663
         INT.     0.2558D+13                 10154.0073    55.8096    86.6398
         TRA.     0.2481D+28                  1689.1255     4.9680    41.8507
         TOT.                        5.592   11843.1328    60.7777   128.4905

 350.00  VIB.     0.1303D+07                  9677.4993    54.5642    55.6299
         ROT.     0.3053D+07                  1043.2834     2.9808    32.6528
         INT.     0.3977D+13                 10720.7827    57.5450    88.2826
         TRA.     0.2591D+28                  1738.8057     4.9680    41.9947
         TOT.                        6.209   12459.5884    62.5130   130.2773

 360.00  VIB.     0.1938D+07                 10231.8003    56.2950    57.1913
         ROT.     0.3184D+07                  1073.0915     2.9808    32.7367
         INT.     0.6173D+13                 11304.8918    59.2758    89.9280
         TRA.     0.2703D+28                  1788.4859     4.9680    42.1347
         TOT.                        6.843   13093.3777    64.2438   132.0627

 370.00  VIB.     0.2884D+07                 10803.3717    58.0177    58.7572
         ROT.     0.3318D+07                  1102.8996     2.9808    32.8184
         INT.     0.9568D+13                 11906.2713    60.9985    91.5756
         TRA.     0.2817D+28                  1838.1660     4.9680    42.2708
         TOT.                        7.494   13744.4373    65.9665   133.8464

 380.00  VIB.     0.4289D+07                 11392.1165    59.7292    60.3272
         ROT.     0.3453D+07                  1132.7077     2.9808    32.8979
         INT.     0.1481D+14                 12524.8242    62.7100    93.2251
         TRA.     0.2932D+28                  1887.8462     4.9680    42.4033
         TOT.                        8.162   14412.6704    67.6780   135.6283

 390.00  VIB.     0.6380D+07                 11997.9086    61.4267    61.9007
         ROT.     0.3591D+07                  1162.5158     2.9808    32.9753
         INT.     0.2291D+14                 13160.4244    64.4075    94.8760
         TRA.     0.3048D+28                  1937.5263     4.9680    42.5323
         TOT.                        8.847   15097.9507    69.3755   137.4083

 400.00  VIB.     0.9488D+07                 12620.5958    63.1078    63.4771
         ROT.     0.3729D+07                  1192.3239     2.9808    33.0508
         INT.     0.3539D+14                 13812.9197    66.0886    96.5279
         TRA.     0.3166D+28                  1987.2065     4.9680    42.6581
         TOT.                        9.549   15800.1262    71.0567   139.1860

   *: NOTE: HEATS OF FORMATION ARE RELATIVE TO THE
            ELEMENTS IN THEIR STANDARD STATE AT 298K
              (=  Standard Enthalpy of Formation).

            Hvib:  Zero-point energy is not included.
                   frequencies of less than zero cm-1 are not included.
            Hrot = (3/2)RT
            Htra = (3/2)RT + pV = (5/2)RT

            Heat capacity is Cp, not Cv

           For more information, see: HTTP://OpenMOPAC.net/Manual/thermochemistry.html


           FORCE CONSTANT IN CARTESIAN COORDINATES (Millidynes/A)

    ATOM   CHEMICAL       X               Y               Z
   NUMBER   SYMBOL  FORCE CONSTANT  FORCE CONSTANT  FORCE CONSTANT

      1       C        7.620991        8.023627        9.331376
      2       C        7.611577        8.049366        9.316327
      3       C        8.073702        7.798580        8.595911
      4       C        8.071831        7.802391        8.596669
      5       C        8.176198        8.419925        8.828295
      6       C        8.382803        8.224573        8.818070
      7       C        8.232345        8.286393        8.328451
      8       C        8.286619        8.241641        8.318495
      9       C        8.490068        9.567160        9.375072
     10       C        8.302856        9.747902        9.380635
     11       C        8.292438        9.638203        9.256707
     12       C        8.353728        9.570801        9.265623
     13       H        1.369346        1.345196        3.551230
     14       H        1.369980        1.260028        3.635802
     15       H        1.356543        1.487611        3.784927
     16       H        1.579549        1.458014        3.597472
     17       H        1.356583        1.387250        3.885778
     18       H        1.579670        1.560134        3.495706
     19       H        1.602220        1.169894        3.629489
     20       H        4.540381        1.075093        0.665211
     21       H        0.961098        1.757435        3.682724
     22       H        1.356446        4.249378        0.674380
     23       H        4.940999        1.173400        0.671312
     24       H        1.602691        1.418625        3.774046
     25       H        1.708532        1.277317        3.801948
     26       H        1.377395        1.739045        3.677585
     27       H        1.033010        1.887131        3.866057
     28       H        1.493796        4.611572        0.680264
     29       H        0.938725        1.184161        4.093125
     30       H        0.953618        1.167858        4.085809
     31       H        0.937946        1.093588        4.184812
     32       H        0.924707        1.106541        4.175747



 TOTAL CPU TIME:            10.89 SECONDS

 == MOPAC DONE ==
