 *******************************************************************************
 ** Site#: 14399           For non-commercial use only        Version 13.159M **
 *******************************************************************************
 ** Cite this work as: MOPAC2012, James J. P. Stewart, Stewart Computational  **
 ** Chemistry, Version 13.159M web: HTTP://OpenMOPAC.net  Days remaining:   5 **
 *******************************************************************************
 **                                                                           **
 **                                MOPAC2012                                  **
 **                                                                           **
 *******************************************************************************

                            PM3 CALCULATION RESULTS


 *******************************************************************************
 *  CALCULATION DONE:                                Tue Jun  3 11:51:45 2014  *
 *  PM3      - The PM3 Hamiltonian to be used
 *  PRECISE  - CRITERIA TO BE INCREASED BY 100 TIMES
 *  NOSYM    - POINT-GROUP SYMMETRY SET TO C1
 *  T=       - A TIME OF 172800.0 SECONDS REQUESTED
 *  DUMP=N   - RESTART FILE WRITTEN EVERY  7200.000 SECONDS
 *******************************************************************************
pm3  precise nosym
 InChI=1S/C6H10/c1-2-6-4-3-5-6/h2,6H,1,3-5H2

   ATOM   CHEMICAL          X               Y               Z
  NUMBER   SYMBOL      (ANGSTROMS)     (ANGSTROMS)     (ANGSTROMS)
 
     1       C          0.17360000  *   0.50850000  *  -0.17700000  *
     2       C         -1.12010000  *   0.80340000  *   0.64380000  *
     3       C         -0.56160000  *  -0.65300000  *  -0.83810000  *
     4       C         -1.82980000  *  -0.27730000  *  -0.15740000  *
     5       C          1.37540000  *   0.11850000  *   0.64080000  *
     6       C          2.50540000  *  -0.29540000  *   0.06360000  *
     7       H          0.39850000  *   1.33530000  *  -0.89250000  *
     8       H         -2.24660000  *  -1.09070000  *   0.48150000  *
     9       H         -2.58600000  *   0.14510000  *  -0.86040000  *
    10       H         -0.61320000  *  -0.55330000  *  -1.94750000  *
    11       H         -1.06070000  *   0.54790000  *   1.72810000  *
    12       H         -1.52820000  *   1.82430000  *   0.45910000  *
    13       H         -0.20410000  *  -1.66360000  *  -0.52670000  *
    14       H          1.34040000  *   0.18840000  *   1.72720000  *
    15       H          3.36500000  *  -0.56430000  *   0.67460000  *
    16       H          2.59180000  *  -0.37370000  *  -1.01910000  *
 


          CARTESIAN COORDINATES 

    NO.       ATOM         X         Y         Z

     1         C        0.1736    0.5085   -0.1770
     2         C       -1.1201    0.8034    0.6438
     3         C       -0.5616   -0.6530   -0.8381
     4         C       -1.8298   -0.2773   -0.1574
     5         C        1.3754    0.1185    0.6408
     6         C        2.5054   -0.2954    0.0636
     7         H        0.3985    1.3353   -0.8925
     8         H       -2.2466   -1.0907    0.4815
     9         H       -2.5860    0.1451   -0.8604
    10         H       -0.6132   -0.5533   -1.9475
    11         H       -1.0607    0.5479    1.7281
    12         H       -1.5282    1.8243    0.4591
    13         H       -0.2041   -1.6636   -0.5267
    14         H        1.3404    0.1884    1.7272
    15         H        3.3650   -0.5643    0.6746
    16         H        2.5918   -0.3737   -1.0191

  H: (PM3): J. J. P. STEWART, J. COMP. CHEM. 10, 209 (1989).
  C: (PM3): J. J. P. STEWART, J. COMP. CHEM. 10, 209 (1989).

           Empirical Formula: C6 H10  =    16 atoms



      MOLECULAR POINT GROUP   :   C1  


      RHF CALCULATION, NO. OF DOUBLY OCCUPIED LEVELS =   17

      Geometry optimization using EF

          DIAGONAL MATRIX USED AS START HESSIAN

 CYCLE:     1 TIME:   0.007 TIME LEFT:  2.00D  GRAD.:    97.153 HEAT: 20.47266
 CYCLE:     2 TIME:   0.010 TIME LEFT:  2.00D  GRAD.:    38.200 HEAT: 18.19837
 CYCLE:     3 TIME:   0.003 TIME LEFT:  2.00D  GRAD.:    78.639 HEAT: 17.96715
 CYCLE:     4 TIME:   0.003 TIME LEFT:  2.00D  GRAD.:    58.860 HEAT: 17.02493
 CYCLE:     5 TIME:   0.006 TIME LEFT:  2.00D  GRAD.:    27.068 HEAT: 16.13535
 CYCLE:     6 TIME:   0.003 TIME LEFT:  2.00D  GRAD.:    36.362 HEAT: 16.04377
 CYCLE:     7 TIME:   0.003 TIME LEFT:  2.00D  GRAD.:    37.684 HEAT: 15.87925
 CYCLE:     8 TIME:   0.006 TIME LEFT:  2.00D  GRAD.:    14.378 HEAT: 15.51160
 CYCLE:     9 TIME:   0.006 TIME LEFT:  2.00D  GRAD.:     9.245 HEAT: 15.44393
 CYCLE:    10 TIME:   0.003 TIME LEFT:  2.00D  GRAD.:    10.987 HEAT: 15.40740
 CYCLE:    11 TIME:   0.006 TIME LEFT:  2.00D  GRAD.:     8.954 HEAT: 15.38210
 CYCLE:    12 TIME:   0.003 TIME LEFT:  2.00D  GRAD.:    10.179 HEAT: 15.36916
 CYCLE:    13 TIME:   0.003 TIME LEFT:  2.00D  GRAD.:     7.807 HEAT: 15.35275
 CYCLE:    14 TIME:   0.003 TIME LEFT:  2.00D  GRAD.:     5.667 HEAT: 15.33899
 CYCLE:    15 TIME:   0.005 TIME LEFT:  2.00D  GRAD.:     2.795 HEAT: 15.33118
 CYCLE:    16 TIME:   0.003 TIME LEFT:  2.00D  GRAD.:     3.588 HEAT: 15.32953
 CYCLE:    17 TIME:   0.003 TIME LEFT:  2.00D  GRAD.:     1.979 HEAT: 15.32346
 CYCLE:    18 TIME:   0.003 TIME LEFT:  2.00D  GRAD.:     3.376 HEAT: 15.32000
 CYCLE:    19 TIME:   0.003 TIME LEFT:  2.00D  GRAD.:     2.754 HEAT: 15.31242
 CYCLE:    20 TIME:   0.003 TIME LEFT:  2.00D  GRAD.:     3.903 HEAT: 15.29871
 CYCLE:    21 TIME:   0.003 TIME LEFT:  2.00D  GRAD.:     3.262 HEAT: 15.28585
 CYCLE:    22 TIME:   0.003 TIME LEFT:  2.00D  GRAD.:     4.184 HEAT: 15.27583
 CYCLE:    23 TIME:   0.003 TIME LEFT:  2.00D  GRAD.:     6.793 HEAT: 15.27389
 CYCLE:    24 TIME:   0.003 TIME LEFT:  2.00D  GRAD.:     2.996 HEAT: 15.25661
 CYCLE:    25 TIME:   0.003 TIME LEFT:  2.00D  GRAD.:     1.872 HEAT: 15.24685
 CYCLE:    26 TIME:   0.003 TIME LEFT:  2.00D  GRAD.:     2.316 HEAT: 15.23646
 CYCLE:    27 TIME:   0.003 TIME LEFT:  2.00D  GRAD.:     1.781 HEAT: 15.23055
 CYCLE:    28 TIME:   0.003 TIME LEFT:  2.00D  GRAD.:     1.531 HEAT: 15.22690
 CYCLE:    29 TIME:   0.003 TIME LEFT:  2.00D  GRAD.:     2.042 HEAT: 15.22262
 CYCLE:    30 TIME:   0.003 TIME LEFT:  2.00D  GRAD.:     1.882 HEAT: 15.21765
 CYCLE:    31 TIME:   0.003 TIME LEFT:  2.00D  GRAD.:     1.117 HEAT: 15.21273
 CYCLE:    32 TIME:   0.003 TIME LEFT:  2.00D  GRAD.:     0.939 HEAT: 15.21065
 CYCLE:    33 TIME:   0.003 TIME LEFT:  2.00D  GRAD.:     0.873 HEAT: 15.20903
 CYCLE:    34 TIME:   0.003 TIME LEFT:  2.00D  GRAD.:     0.839 HEAT: 15.20681
 CYCLE:    35 TIME:   0.003 TIME LEFT:  2.00D  GRAD.:     0.712 HEAT: 15.20513
 CYCLE:    36 TIME:   0.003 TIME LEFT:  2.00D  GRAD.:     0.599 HEAT: 15.20392
 CYCLE:    37 TIME:   0.003 TIME LEFT:  2.00D  GRAD.:     0.605 HEAT: 15.20320
 CYCLE:    38 TIME:   0.003 TIME LEFT:  2.00D  GRAD.:     0.635 HEAT: 15.20242
 CYCLE:    39 TIME:   0.003 TIME LEFT:  2.00D  GRAD.:     0.594 HEAT: 15.20158
 CYCLE:    40 TIME:   0.003 TIME LEFT:  2.00D  GRAD.:     0.469 HEAT: 15.20085
 CYCLE:    41 TIME:   0.003 TIME LEFT:  2.00D  GRAD.:     0.314 HEAT: 15.20046
 CYCLE:    42 TIME:   0.003 TIME LEFT:  2.00D  GRAD.:     0.267 HEAT: 15.20025
 CYCLE:    43 TIME:   0.003 TIME LEFT:  2.00D  GRAD.:     0.218 HEAT: 15.20013
 CYCLE:    44 TIME:   0.003 TIME LEFT:  2.00D  GRAD.:     0.159 HEAT: 15.20004
 CYCLE:    45 TIME:   0.003 TIME LEFT:  2.00D  GRAD.:     0.129 HEAT: 15.19999
 CYCLE:    46 TIME:   0.003 TIME LEFT:  2.00D  GRAD.:     0.115 HEAT: 15.19996
 CYCLE:    47 TIME:   0.003 TIME LEFT:  2.00D  GRAD.:     0.094 HEAT: 15.19993
 CYCLE:    48 TIME:   0.003 TIME LEFT:  2.00D  GRAD.:     0.076 HEAT: 15.19991
 CYCLE:    49 TIME:   0.003 TIME LEFT:  2.00D  GRAD.:     0.053 HEAT: 15.19990
 CYCLE:    50 TIME:   0.003 TIME LEFT:  2.00D  GRAD.:     0.054 HEAT: 15.19990
 CYCLE:    51 TIME:   0.003 TIME LEFT:  2.00D  GRAD.:     0.057 HEAT: 15.19989
 CYCLE:    52 TIME:   0.003 TIME LEFT:  2.00D  GRAD.:     0.053 HEAT: 15.19988
 CYCLE:    53 TIME:   0.004 TIME LEFT:  2.00D  GRAD.:     0.046 HEAT: 15.19987

     RMS GRADIENT =  0.04615  IS LESS THAN CUTOFF =  0.05000



 -------------------------------------------------------------------------------
pm3  precise nosym
 InChI=1S/C6H10/c1-2-6-4-3-5-6/h2,6H,1,3-5H2



     GEOMETRY OPTIMISED USING EIGENVECTOR FOLLOWING (EF).     
     SCF FIELD WAS ACHIEVED                                   


                              PM3 CALCULATION
                                                       MOPAC2012 (Version: 13.159M)
                                                       Tue Jun  3 11:51:45 2014
                                                       No. of days left =   5




          FINAL HEAT OF FORMATION =         15.19987 KCAL/MOL =      63.59627 KJ/MOL


          TOTAL ENERGY            =       -864.51015 EV
          ELECTRONIC ENERGY       =      -3792.89413 EV  POINT GROUP:     C1  
          CORE-CORE REPULSION     =       2928.38398 EV
          COSMO AREA              =        136.98 SQUARE ANGSTROMS
          COSMO VOLUME            =        127.62 CUBIC ANGSTROMS

          GRADIENT NORM           =          0.04615
          IONIZATION POTENTIAL    =         10.087992 EV
          HOMO LUMO ENERGIES (EV) =        -10.088  1.147
          NO. OF FILLED LEVELS    =         17
          MOLECULAR WEIGHT        =         82.145

          MOLECULAR DIMENSIONS (Angstroms)

            Atom       Atom       Distance
            H    15    H     9     6.23687
            H    11    H    10     3.89913
            H     7    H     8     3.17198


          SCF CALCULATIONS        =         61
          COMPUTATION TIME        =          0.201 SECONDS




   ATOM   CHEMICAL          X               Y               Z
  NUMBER   SYMBOL      (ANGSTROMS)     (ANGSTROMS)     (ANGSTROMS)
 
     1       C          0.18338461  *   0.52055664  *  -0.17525859  *
     2       C         -1.10855201  *   0.82972293  *   0.62263873  *
     3       C         -0.55588046  *  -0.63965404  *  -0.89324433  *
     4       C         -1.84113001  *  -0.30941872  *  -0.11150615  *
     5       C          1.35737804  *   0.11212580  *   0.63562133  *
     6       C          2.49350993  *  -0.30752618  *   0.09018185  *
     7       H          0.47785967  *   1.34293542  *  -0.86086831  *
     8       H         -2.20596057  *  -1.11809704  *   0.53902378  *
     9       H         -2.68963341  *   0.01288299  *  -0.73326729  *
    10       H         -0.63324448  *  -0.52628510  *  -1.98444596  *
    11       H         -1.02466785  *   0.69722792  *   1.71255261  *
    12       H         -1.52197386  *   1.83421405  *   0.44952626  *
    13       H         -0.13777669  *  -1.63860658  *  -0.69781037  *
    14       H          1.24441292  *   0.17575995  *   1.72494397  *
    15       H          3.35280659  *  -0.60557815  *   0.68271435  *
    16       H          2.64406241  *  -0.38287293  *  -0.98298221  *

           Empirical Formula: C6 H10  =    16 atoms



      MOLECULAR POINT GROUP   :   C1  


                  EIGENVALUES  
 -40.29132 -32.31748 -25.66118 -24.73581 -20.23378 -18.53641 -16.98870 -16.65208
 -15.58630 -14.13439 -13.52905 -13.25437 -12.40564 -11.94848 -11.75077 -11.20173
 -10.08799   1.14652   3.28609   3.42917   3.51340   3.63029   3.81492   4.00014
   4.05013   4.31938   4.39544   4.47751   4.49116   4.53060   5.18504   5.42855
   5.75810   5.87526


              NET ATOMIC CHARGES AND DIPOLE CONTRIBUTIONS

  ATOM NO.   TYPE          CHARGE      No. of ELECS.   s-Pop       p-Pop       
    1          C          -0.064499        4.0645     1.17855     2.88595
    2          C          -0.107058        4.1071     1.17504     2.93201
    3          C          -0.103303        4.1033     1.17404     2.92926
    4          C          -0.108569        4.1086     1.17030     2.93826
    5          C          -0.125109        4.1251     1.19407     2.93103
    6          C          -0.168690        4.1687     1.18182     2.98687
    7          H           0.076444        0.9236     0.92356
    8          H           0.055500        0.9445     0.94450
    9          H           0.054716        0.9453     0.94528
   10          H           0.054467        0.9455     0.94553
   11          H           0.058813        0.9412     0.94119
   12          H           0.054902        0.9451     0.94510
   13          H           0.061381        0.9386     0.93862
   14          H           0.099696        0.9003     0.90030
   15          H           0.079801        0.9202     0.92020
   16          H           0.081507        0.9185     0.91849
 DIPOLE           X         Y         Z       TOTAL
 POINT-CHG.    -0.187     0.033    -0.004     0.190
 HYBRID         0.023    -0.019    -0.005     0.030
 SUM           -0.164     0.014    -0.009     0.165


          ATOMIC ORBITAL ELECTRON POPULATIONS

    Atom      s        px        py        pz   
    1  C   1.17855   0.93067   0.98137   0.97391
    2  C   1.17504   0.96184   0.98232   0.98786
    3  C   1.17404   0.96252   0.98121   0.98553
    4  C   1.17030   0.96162   0.98501   0.99164
    5  C   1.19407   0.95336   0.99004   0.98763
    6  C   1.18182   0.97004   1.01198   1.00484
    7  H   0.92356
    8  H   0.94450
    9  H   0.94528
   10  H   0.94553
   11  H   0.94119
   12  H   0.94510
   13  H   0.93862
   14  H   0.90030
   15  H   0.92020
   16  H   0.91849
 *******************************************************************************
 ** Site#: 14399           For non-commercial use only        Version 13.159M **
 *******************************************************************************
 ** Cite this work as: MOPAC2012, James J. P. Stewart, Stewart Computational  **
 ** Chemistry, Version 13.159M web: HTTP://OpenMOPAC.net  Days remaining:   5 **
 *******************************************************************************
 **                                                                           **
 **                                MOPAC2012                                  **
 **                                                                           **
 *******************************************************************************

                            PM3 CALCULATION RESULTS


 *******************************************************************************
 *  CALCULATION DONE:                                Tue Jun  3 11:51:45 2014  *
 *  PM3      - The PM3 Hamiltonian to be used
 *  OLDGEO   - PREVIOUS GEOMETRY TO BE USED
 *  PRECISE  - CRITERIA TO BE INCREASED BY 100 TIMES
 *  NOSYM    - POINT-GROUP SYMMETRY SET TO C1
 *  T=       - A TIME OF 172800.0 SECONDS REQUESTED
 *  DUMP=N   - RESTART FILE WRITTEN EVERY  7200.000 SECONDS
 *  THERMO   - THERMODYNAMIC QUANTITIES TO BE CALCULATED
 *******************************************************************************
oldgeo thermo nosym precise  pm3

   ATOM   CHEMICAL          X               Y               Z
  NUMBER   SYMBOL      (ANGSTROMS)     (ANGSTROMS)     (ANGSTROMS)
 
     1       C          0.18338461  *   0.52055664  *  -0.17525859  *
     2       C         -1.10855201  *   0.82972293  *   0.62263873  *
     3       C         -0.55588046  *  -0.63965404  *  -0.89324433  *
     4       C         -1.84113001  *  -0.30941872  *  -0.11150615  *
     5       C          1.35737804  *   0.11212580  *   0.63562133  *
     6       C          2.49350993  *  -0.30752618  *   0.09018185  *
     7       H          0.47785967  *   1.34293542  *  -0.86086831  *
     8       H         -2.20596057  *  -1.11809704  *   0.53902378  *
     9       H         -2.68963341  *   0.01288299  *  -0.73326729  *
    10       H         -0.63324448  *  -0.52628510  *  -1.98444596  *
    11       H         -1.02466785  *   0.69722792  *   1.71255261  *
    12       H         -1.52197386  *   1.83421405  *   0.44952626  *
    13       H         -0.13777669  *  -1.63860658  *  -0.69781037  *
    14       H          1.24441292  *   0.17575995  *   1.72494397  *
    15       H          3.35280659  *  -0.60557815  *   0.68271435  *
    16       H          2.64406241  *  -0.38287293  *  -0.98298221  *
 


          CARTESIAN COORDINATES 

    NO.       ATOM         X         Y         Z

     1         C        0.1834    0.5206   -0.1753
     2         C       -1.1086    0.8297    0.6226
     3         C       -0.5559   -0.6397   -0.8932
     4         C       -1.8411   -0.3094   -0.1115
     5         C        1.3574    0.1121    0.6356
     6         C        2.4935   -0.3075    0.0902
     7         H        0.4779    1.3429   -0.8609
     8         H       -2.2060   -1.1181    0.5390
     9         H       -2.6896    0.0129   -0.7333
    10         H       -0.6332   -0.5263   -1.9844
    11         H       -1.0247    0.6972    1.7126
    12         H       -1.5220    1.8342    0.4495
    13         H       -0.1378   -1.6386   -0.6978
    14         H        1.2444    0.1758    1.7249
    15         H        3.3528   -0.6056    0.6827
    16         H        2.6441   -0.3829   -0.9830

  H: (PM3): J. J. P. STEWART, J. COMP. CHEM. 10, 209 (1989).
  C: (PM3): J. J. P. STEWART, J. COMP. CHEM. 10, 209 (1989).

           Empirical Formula: C6 H10  =    16 atoms



      MOLECULAR POINT GROUP   :   C1  


      RHF CALCULATION, NO. OF DOUBLY OCCUPIED LEVELS =   17



          HEAT OF FORMATION =      15.199874 KCALS/MOLE


          INTERNAL COORDINATE DERIVATIVES

   NUMBER  ATOM       BOND         ANGLE      DIHEDRAL

     1       C     -0.002915     0.001245    -0.001368
     2       C     -0.002468     0.002753     0.002229
     3       C     -0.004797    -0.003142    -0.004939
     4       C     -0.004984    -0.000401    -0.006132
     5       C      0.006653    -0.001304    -0.008616
     6       C      0.013519     0.005587     0.010658
     7       H      0.002400    -0.000087    -0.000460
     8       H     -0.012545    -0.009174     0.002365
     9       H      0.020586     0.001783    -0.006907
    10       H     -0.007538     0.003942     0.005839
    11       H      0.000249     0.007827     0.005828
    12       H     -0.000150     0.002750     0.000850
    13       H     -0.006876    -0.004979    -0.002609
    14       H     -0.008131    -0.017995     0.002059
    15       H     -0.004156     0.003907     0.000314
    16       H      0.011154     0.007286     0.000891


          GRADIENT NORM =   0.04712


          TIME FOR SCF CALCULATION =    0.00

          TIME FOR DERIVATIVES     =    0.00

          MOLECULAR WEIGHT =   82.14



          ROTATIONAL CONSTANTS IN CM(-1)

          A =    0.27608108   B =    0.08109156   C =    0.07006217



           PRINCIPAL MOMENTS OF INERTIA IN UNITS OF 10**(-40)*GRAM-CM**2

          A =      101.3933   B =      345.1996   C =      399.5419


          ORIENTATION OF MOLECULE IN FORCE CALCULATION

    NO.       ATOM         X         Y         Z

     1          C      -0.0971   -0.3295   -0.4206
     2          C       1.4525   -0.3295   -0.4206
     3          C      -0.0819    1.2223   -0.4206
     4          C       1.4580    1.2109   -0.4435
     5          C      -0.7398   -0.9523    0.7633
     6          C      -2.0516   -0.9146    0.9688
     7          H      -0.5316   -0.7632   -1.3459
     8          H       1.9358    1.6837    0.4274
     9          H       1.9096    1.6574   -1.3419
    10          H      -0.5567    1.6839   -1.2987
    11          H       1.9173   -0.7792    0.4706
    12          H       1.9085   -0.8079   -1.2998
    13          H      -0.5292    1.6839    0.4726
    14          H      -0.0721   -1.4566    1.4727
    15          H      -2.5224   -1.3707    1.8340
    16          H      -2.7447   -0.4267    0.2894


    FIRST DERIVATIVES WILL BE USED IN THE CALCULATION OF SECOND DERIVATIVES

          ESTIMATED TIME TO COMPLETE CALCULATION =        0.81 SECONDS

    FOR POINT-GROUP C1   THERE ARE   1 UNIQUE SYMMETRY FUNCTIONS.

 STEP:   1 TIME =     0.01 SECS, INTEGRAL =      0.01 TIME LEFT: 172799.98
 STEP:   2 TIME =     0.01 SECS, INTEGRAL =      0.03 TIME LEFT: 172799.97
 STEP:   3 TIME =     0.01 SECS, INTEGRAL =      0.04 TIME LEFT: 172799.95
 STEP:   4 TIME =     0.01 SECS, INTEGRAL =      0.06 TIME LEFT: 172799.94
 STEP:   5 TIME =     0.01 SECS, INTEGRAL =      0.07 TIME LEFT: 172799.93
 STEP:   6 TIME =     0.01 SECS, INTEGRAL =      0.08 TIME LEFT: 172799.91
 STEP:   7 TIME =     0.01 SECS, INTEGRAL =      0.10 TIME LEFT: 172799.90
 STEP:   8 TIME =     0.01 SECS, INTEGRAL =      0.11 TIME LEFT: 172799.88
 STEP:   9 TIME =     0.01 SECS, INTEGRAL =      0.13 TIME LEFT: 172799.87
 STEP:  10 TIME =     0.01 SECS, INTEGRAL =      0.14 TIME LEFT: 172799.86
 STEP:  11 TIME =     0.01 SECS, INTEGRAL =      0.15 TIME LEFT: 172799.84
 STEP:  12 TIME =     0.01 SECS, INTEGRAL =      0.17 TIME LEFT: 172799.83
 STEP:  13 TIME =     0.01 SECS, INTEGRAL =      0.18 TIME LEFT: 172799.81
 STEP:  14 TIME =     0.01 SECS, INTEGRAL =      0.20 TIME LEFT: 172799.80
 STEP:  15 TIME =     0.01 SECS, INTEGRAL =      0.21 TIME LEFT: 172799.79
 STEP:  16 TIME =     0.01 SECS, INTEGRAL =      0.22 TIME LEFT: 172799.77
 STEP:  17 TIME =     0.01 SECS, INTEGRAL =      0.24 TIME LEFT: 172799.76
 STEP:  18 TIME =     0.01 SECS, INTEGRAL =      0.25 TIME LEFT: 172799.74
 STEP:  19 TIME =     0.01 SECS, INTEGRAL =      0.27 TIME LEFT: 172799.73
 STEP:  20 TIME =     0.01 SECS, INTEGRAL =      0.28 TIME LEFT: 172799.71
 STEP:  21 TIME =     0.01 SECS, INTEGRAL =      0.29 TIME LEFT: 172799.70
 STEP:  22 TIME =     0.01 SECS, INTEGRAL =      0.31 TIME LEFT: 172799.69
 STEP:  23 TIME =     0.01 SECS, INTEGRAL =      0.32 TIME LEFT: 172799.67
 STEP:  24 TIME =     0.01 SECS, INTEGRAL =      0.34 TIME LEFT: 172799.66
 STEP:  25 TIME =     0.01 SECS, INTEGRAL =      0.35 TIME LEFT: 172799.64
 STEP:  26 TIME =     0.01 SECS, INTEGRAL =      0.37 TIME LEFT: 172799.63
 STEP:  27 TIME =     0.02 SECS, INTEGRAL =      0.38 TIME LEFT: 172799.61
 STEP:  28 TIME =     0.02 SECS, INTEGRAL =      0.40 TIME LEFT: 172799.60
 STEP:  29 TIME =     0.01 SECS, INTEGRAL =      0.41 TIME LEFT: 172799.58
 STEP:  30 TIME =     0.01 SECS, INTEGRAL =      0.43 TIME LEFT: 172799.57
 STEP:  31 TIME =     0.01 SECS, INTEGRAL =      0.44 TIME LEFT: 172799.55
 STEP:  32 TIME =     0.01 SECS, INTEGRAL =      0.46 TIME LEFT: 172799.54
 STEP:  33 TIME =     0.01 SECS, INTEGRAL =      0.47 TIME LEFT: 172799.53
 STEP:  34 TIME =     0.01 SECS, INTEGRAL =      0.49 TIME LEFT: 172799.51
 STEP:  35 TIME =     0.01 SECS, INTEGRAL =      0.50 TIME LEFT: 172799.50
 STEP:  36 TIME =     0.01 SECS, INTEGRAL =      0.51 TIME LEFT: 172799.48
 STEP:  37 TIME =     0.01 SECS, INTEGRAL =      0.53 TIME LEFT: 172799.47
 STEP:  38 TIME =     0.01 SECS, INTEGRAL =      0.54 TIME LEFT: 172799.45
 STEP:  39 TIME =     0.01 SECS, INTEGRAL =      0.56 TIME LEFT: 172799.44
 STEP:  40 TIME =     0.01 SECS, INTEGRAL =      0.57 TIME LEFT: 172799.42
 STEP:  41 TIME =     0.01 SECS, INTEGRAL =      0.59 TIME LEFT: 172799.41
 STEP:  42 TIME =     0.01 SECS, INTEGRAL =      0.60 TIME LEFT: 172799.40
 STEP:  43 TIME =     0.01 SECS, INTEGRAL =      0.61 TIME LEFT: 172799.38
 STEP:  44 TIME =     0.01 SECS, INTEGRAL =      0.63 TIME LEFT: 172799.37
 STEP:  45 TIME =     0.01 SECS, INTEGRAL =      0.64 TIME LEFT: 172799.35
 STEP:  46 TIME =     0.01 SECS, INTEGRAL =      0.66 TIME LEFT: 172799.34
 STEP:  47 TIME =     0.01 SECS, INTEGRAL =      0.67 TIME LEFT: 172799.32
 STEP:  48 TIME =     0.01 SECS, INTEGRAL =      0.69 TIME LEFT: 172799.31

(To convert to Hartree/Bohr^2, multiply by (10^(-21) x N x a0^2)/(4.184 x 627.51) = 0.0642)


           FORCE MATRIX IN MILLIDYNES/ANGSTROM


                  C  1       C  2       C  3       C  4       C  5       C  6
 ------------------------------------------------------------------------------
     C    1  14.835141
     C    2   3.433284  14.402858
     C    3   3.328306   1.838924  14.354321
     C    4   1.824409   3.722707   3.733451  14.504742
     C    5   5.047208   0.565285   0.569588   0.040317  18.248202
     C    6   0.840109   0.051228   0.034919   0.006302  11.049715  18.032119
     H    7   4.418398   0.428073   0.433803   0.026851   0.407722   0.030698
     H    8   0.029774   0.445310   0.445574   4.702728   0.002443   0.000826
     H    9   0.030520   0.445048   0.445214   4.698771   0.002589   0.000697
     H   10   0.442022   0.031238   4.711851   0.443902   0.031526   0.002293
     H   11   0.452180   4.666060   0.028623   0.445088   0.032315   0.003414
     H   12   0.440415   4.708861   0.030417   0.444290   0.033382   0.006091
     H   13   0.451072   0.028318   4.697184   0.444706   0.022120   0.005878
     H   14   0.440537   0.039732   0.024397   0.001966   4.782599   0.453893
     H   15   0.131717   0.006248   0.013450   0.001568   0.463436   5.111476
     H   16   0.098091   0.001651   0.013712   0.001513   0.494287   5.088854


                  H  7       H  8       H  9       H 10       H 11       H 12
 ------------------------------------------------------------------------------
     H    7   4.898490
     H    8   0.001298   5.326322
     H    9   0.002560   0.559846   5.323886
     H   10   0.026158   0.032398   0.023130   5.332600
     H   11   0.031046   0.023572   0.032553   0.001230   5.294346
     H   12   0.027548   0.032614   0.023247   0.003195   0.556524   5.330029
     H   13   0.031249   0.023480   0.032488   0.554338   0.002775   0.001202
     H   14   0.023180   0.000799   0.000660   0.002937   0.026998   0.001779
     H   15   0.010711   0.000280   0.000212   0.001562   0.000648   0.000923
     H   16   0.011495   0.000297   0.000327   0.001943   0.000688   0.000625


                  H 13       H 14       H 15       H 16
 ------------------------------------------------------
     H   13   5.319685
     H   14   0.003318   5.146130
     H   15   0.001514   0.079521   5.500066
     H   16   0.002211   0.118355   0.420630   5.479707


          HEAT OF FORMATION =      15.199874 KCALS/MOLE

          ZERO POINT ENERGY      89.552 KCAL/MOL


           NORMAL COORDINATE ANALYSIS (Total motion = 1 Angstrom)


   Root No.       1         2         3         4         5         6         7         8

                 1 A       2 A       3 A       4 A       5 A       6 A       7 A       8 A   

                  74.1     151.1     253.1     392.1     464.3     642.0     764.3     824.6
  
           1    0.0102   -0.0096   -0.0167    0.0040   -0.0273   -0.0135    0.0295   -0.0104
           2   -0.0224   -0.0005    0.0285    0.0095    0.0207   -0.0045    0.0287   -0.0102
           3   -0.0197   -0.0174   -0.0127    0.0503    0.0035    0.0094    0.0318   -0.0116
           4    0.0103   -0.0094   -0.0148    0.0037   -0.0459   -0.0150    0.0247   -0.0128
           5    0.0086   -0.0085   -0.0008    0.0096   -0.0194    0.0177   -0.0303    0.0097
           6    0.0078   -0.0244    0.0360   -0.0219    0.0233   -0.0006    0.0097    0.0108
           7   -0.0209   -0.0020    0.0170    0.0098   -0.0178    0.0169   -0.0300    0.0096
           8   -0.0223   -0.0005    0.0288    0.0104    0.0236    0.0168    0.0234   -0.0128
           9   -0.0154   -0.0340   -0.0327   -0.0243   -0.0048   -0.0042    0.0105    0.0106
          10   -0.0202   -0.0007    0.0186    0.0109   -0.0158    0.0160   -0.0292    0.0103
          11    0.0090   -0.0076   -0.0033    0.0099   -0.0210    0.0158   -0.0288    0.0101
          12    0.0275    0.0507   -0.0041   -0.0047    0.0030   -0.0019    0.0036    0.0252
          13    0.0047    0.0108   -0.0111   -0.0093    0.0568   -0.0058    0.0005    0.0012
          14   -0.0389    0.0282   -0.0101   -0.0275   -0.0161   -0.0710    0.0064    0.0020
          15   -0.0314    0.0100   -0.0297    0.0276    0.0210   -0.0093   -0.0302   -0.0002
          16    0.0167    0.0105    0.0000   -0.0160    0.0530   -0.0027    0.0060    0.0019
          17    0.0617   -0.0091   -0.0355   -0.0075    0.0126    0.0021    0.0055    0.0005
          18    0.0272    0.0135    0.0380   -0.0074   -0.0377    0.0072   -0.0107   -0.0002
          19    0.0332   -0.0248   -0.0023   -0.0140   -0.0588   -0.0179    0.0560   -0.0158
          20   -0.0318   -0.0154    0.0360   -0.0066    0.0311    0.0352    0.0551   -0.0164
          21   -0.0260   -0.0025   -0.0230    0.0635    0.0132   -0.0077    0.0046   -0.0062
          22   -0.0546   -0.0518    0.0134   -0.0071   -0.0069    0.0214   -0.0085    0.1243
          23    0.0067   -0.0575    0.0111   -0.0091   -0.0206    0.0096   -0.0084    0.1233
          24    0.0477    0.1063   -0.0091    0.0161   -0.0026   -0.0007   -0.0221   -0.1065
          25   -0.0035    0.0569    0.0449    0.0326   -0.0006    0.0293   -0.0624   -0.1041
          26    0.0302    0.0391   -0.0386    0.0276   -0.0512    0.0126   -0.0595   -0.1033
          27    0.0465    0.1033   -0.0086    0.0154   -0.0040    0.0025   -0.0287   -0.0969
          28   -0.0050    0.0537    0.0463    0.0327    0.0004    0.0397   -0.0119    0.1042
          29   -0.0296   -0.0130    0.0256   -0.0488    0.0216   -0.0080   -0.0426   -0.0301
          30   -0.0279   -0.0710   -0.0506   -0.0692   -0.0161   -0.0306   -0.0380   -0.0530
          31    0.0040   -0.0031   -0.0560    0.0574   -0.0805   -0.0108    0.0930   -0.0031
          32    0.0056   -0.0595    0.0171   -0.0120   -0.0122    0.0200   -0.0653   -0.0852
          33    0.0095   -0.0537    0.0674   -0.0626    0.0473   -0.0019   -0.0455   -0.0464
          34    0.0348   -0.0204    0.0082   -0.0547   -0.0345   -0.0235   -0.0402   -0.0299
          35    0.0298    0.0366   -0.0382    0.0280   -0.0551    0.0147   -0.0102    0.1039
          36    0.0089   -0.0550    0.0687   -0.0635    0.0495   -0.0033   -0.0388   -0.0528
          37   -0.0566   -0.0541    0.0099   -0.0105   -0.0177    0.0133   -0.0633   -0.0863
          38   -0.0340    0.0165    0.0534    0.0720    0.0438    0.0554    0.0939   -0.0036
          39   -0.0270   -0.0692   -0.0496   -0.0681   -0.0160   -0.0284   -0.0444   -0.0464
          40   -0.0083    0.0290    0.0095   -0.0344    0.0614    0.0006   -0.0096    0.0096
          41   -0.1399    0.0818   -0.0573   -0.1102   -0.0376    0.0036   -0.0072    0.0204
          42   -0.0909    0.0313   -0.0802   -0.0090   -0.0008    0.0369   -0.0295    0.0049
          43    0.0150    0.0304    0.0563   -0.0660   -0.0299   -0.0142    0.0884   -0.0043
          44    0.0519    0.0098   -0.0975   -0.0746    0.0094    0.2923    0.0442   -0.0199
          45    0.0211    0.0343    0.0368   -0.0701   -0.0872    0.1531    0.0555   -0.0146
          46    0.0300   -0.0099   -0.0458    0.0266    0.1305    0.0117   -0.0589    0.0082
          47    0.1628   -0.0625   -0.0016    0.0836    0.0652   -0.1612   -0.0587    0.0185
          48    0.0862   -0.0039    0.1102    0.0137   -0.0810   -0.1259    0.0118    0.0060


   Root No.       9        10        11        12        13        14        15        16

                 9 A      10 A      11 A      12 A      13 A      14 A      15 A      16 A   

                 868.5     901.7     926.7     981.7     997.0    1019.7    1026.4    1039.8
  
           1   -0.0002   -0.0016    0.0033    0.0133   -0.0081   -0.0037   -0.0101    0.0449
           2    0.0000   -0.0063   -0.0086   -0.0277   -0.0032    0.0184   -0.0089    0.0003
           3   -0.0010    0.0219    0.0053    0.0009    0.0007    0.0076   -0.0008    0.0023
           4    0.0079   -0.0421   -0.0099   -0.0117    0.0139    0.0134    0.0080   -0.0233
           5   -0.0023    0.0094    0.0016    0.0072   -0.0061   -0.0128   -0.0153   -0.0494
           6   -0.0285    0.0086    0.0075   -0.0115   -0.0088   -0.0050    0.0068   -0.0073
           7    0.0018    0.0089    0.0009   -0.0013    0.0117    0.0045    0.0275    0.0142
           8   -0.0062   -0.0337    0.0083    0.0418   -0.0012   -0.0131   -0.0017    0.0161
           9    0.0281    0.0103    0.0032   -0.0093   -0.0012   -0.0119   -0.0020   -0.0079
          10   -0.0020    0.0206   -0.0004   -0.0117   -0.0130   -0.0007   -0.0243   -0.0065
          11    0.0010    0.0217    0.0017   -0.0099    0.0001    0.0082    0.0087    0.0506
          12   -0.0001   -0.0061   -0.0055    0.0053    0.0029    0.0037   -0.0013   -0.0005
          13   -0.0010    0.0091   -0.0032    0.0046    0.0034    0.0027    0.0008   -0.0021
          14    0.0001    0.0126   -0.0398   -0.0116   -0.0072    0.0117   -0.0142   -0.0036
          15    0.0000   -0.0149   -0.0243    0.0152    0.0093    0.0118   -0.0017   -0.0019
          16   -0.0021    0.0134    0.0012   -0.0010   -0.0004   -0.0050    0.0033   -0.0012
          17    0.0013    0.0178   -0.0071    0.0094    0.0077   -0.0332    0.0239   -0.0015
          18   -0.0002   -0.0313   -0.0102   -0.0181   -0.0119   -0.0269    0.0048    0.0145
          19   -0.0438   -0.0274    0.0338    0.0455   -0.1064   -0.0882   -0.0684    0.0828
          20    0.0506   -0.0386    0.0241   -0.1358    0.0660    0.0295    0.0713    0.0014
          21   -0.0043    0.0464   -0.0253    0.0397    0.0158    0.0434   -0.0109   -0.0172
          22    0.0711    0.0055   -0.0190    0.0632   -0.0797   -0.0324   -0.0916   -0.0213
          23   -0.0735   -0.0042   -0.0096   -0.0572    0.0819    0.0571    0.0716    0.0687
          24    0.0003    0.0180    0.0122   -0.0106   -0.0049   -0.0068    0.0024   -0.0046
          25   -0.0880    0.0446    0.0331   -0.0284    0.0153   -0.0263   -0.0366   -0.0633
          26    0.0885    0.0452    0.0012   -0.0195   -0.0408    0.0127    0.0306    0.0967
          27    0.0002    0.0199    0.0121   -0.0097   -0.0042   -0.0073    0.0030   -0.0052
          28    0.0926   -0.0344   -0.0192    0.0638   -0.0417    0.0487    0.1126   -0.0356
          29   -0.0903   -0.1164   -0.0265    0.1454   -0.0454    0.0798    0.0877   -0.0039
          30   -0.0715   -0.0087   -0.0043    0.0124    0.0039    0.0131   -0.0020    0.0079
          31   -0.0698   -0.0225    0.0286   -0.0301   -0.0862    0.0053    0.1048   -0.1542
          32    0.1006    0.0191    0.0022    0.0283   -0.0677    0.0063    0.0622   -0.1609
          33    0.0698    0.0026   -0.0131    0.0110    0.0127    0.0089   -0.0068    0.0058
          34    0.0940   -0.1209   -0.0493    0.0490    0.1443   -0.0065   -0.0692   -0.0226
          35   -0.0929   -0.0377   -0.0020    0.0193    0.0904   -0.0554   -0.0631   -0.0808
          36    0.0716   -0.0055   -0.0122    0.0131    0.0079    0.0097   -0.0064    0.0102
          37   -0.0991    0.0178    0.0267   -0.0118    0.0917   -0.0611   -0.0043   -0.0228
          38    0.0742   -0.0071    0.0486   -0.0122    0.0763   -0.1209   -0.0346   -0.0379
          39   -0.0696   -0.0002   -0.0056    0.0134   -0.0006    0.0137    0.0001    0.0028
          40   -0.0044   -0.0217    0.0259   -0.0669   -0.0315   -0.0088    0.0030   -0.0496
          41    0.0185   -0.0367    0.2969   -0.0385   -0.0159   -0.0366    0.0244   -0.0058
          42    0.0163   -0.0196    0.1884    0.0645    0.0364   -0.0120    0.0234    0.0424
          43    0.0026    0.1720    0.0274    0.0953    0.0586    0.0424    0.0209   -0.0441
          44   -0.0145   -0.0292   -0.0127   -0.0226   -0.0173    0.1481   -0.0883   -0.0117
          45   -0.0056    0.0318    0.0014    0.0201    0.0084    0.0949   -0.0444   -0.0135
          46   -0.0078   -0.1110    0.0082   -0.0867   -0.0540   -0.0056   -0.0318    0.0216
          47    0.0112   -0.0518    0.2006   -0.0176   -0.0110    0.1268   -0.0723   -0.0158
          48    0.0128    0.0510    0.1328    0.0536    0.0312    0.0890   -0.0275   -0.0196


   Root No.      17        18        19        20        21        22        23        24

                17 A      18 A      19 A      20 A      21 A      22 A      23 A      24 A   

                1046.7    1082.1    1117.1    1133.0    1169.8    1187.3    1207.8    1248.3
  
           1   -0.0072    0.0173   -0.0022    0.0114   -0.0225   -0.0406   -0.0035    0.0286
           2   -0.0261   -0.0204    0.0086   -0.0190    0.0339   -0.0089   -0.0163   -0.0265
           3   -0.0101   -0.0080    0.0061   -0.0193    0.0125   -0.0414    0.0087    0.0070
           4   -0.0100   -0.0162    0.0107   -0.0082    0.0012    0.0431   -0.0088    0.0128
           5   -0.0078    0.0007   -0.0066    0.0012    0.0155   -0.0157   -0.0256    0.0271
           6    0.0146   -0.0253   -0.0258   -0.0029   -0.0227    0.0155   -0.0037    0.0007
           7    0.0344    0.0010   -0.0040   -0.0039    0.0001   -0.0345    0.0099   -0.0288
           8    0.0075    0.0143    0.0052    0.0057   -0.0330    0.0184    0.0195   -0.0167
           9    0.0084    0.0336   -0.0186   -0.0200   -0.0065    0.0194   -0.0046   -0.0037
          10   -0.0327   -0.0040    0.0049    0.0012    0.0034    0.0382   -0.0048   -0.0047
          11    0.0033    0.0036    0.0043    0.0046   -0.0202    0.0167    0.0225    0.0057
          12    0.0001   -0.0008    0.0431    0.0253    0.0120   -0.0103    0.0016    0.0002
          13    0.0001   -0.0003   -0.0037    0.0060    0.0020    0.0062   -0.0023   -0.0016
          14    0.0249    0.0145   -0.0065    0.0049   -0.0115   -0.0105   -0.0122    0.0035
          15   -0.0017    0.0015   -0.0170    0.0256    0.0208    0.0284    0.0274    0.0006
          16    0.0009   -0.0018   -0.0002   -0.0017   -0.0029   -0.0044   -0.0200   -0.0079
          17   -0.0220   -0.0110    0.0041   -0.0054    0.0068    0.0044    0.0105    0.0005
          18   -0.0061    0.0022    0.0055   -0.0047   -0.0095   -0.0113   -0.0159   -0.0009
          19    0.0359    0.0553   -0.0636    0.0218    0.2485    0.0031    0.0438   -0.0762
          20   -0.0785   -0.0296   -0.1191    0.1883    0.0017   -0.0888    0.0395    0.0764
          21   -0.0060   -0.0223    0.0965   -0.1253   -0.1019   -0.0248   -0.0392    0.0085
          22   -0.0204   -0.1268    0.0467    0.0894   -0.0633   -0.0114    0.0505    0.0368
          23   -0.0166    0.1230    0.0883   -0.0101    0.0762    0.0665   -0.0153   -0.0352
          24    0.0062    0.0020   -0.0266   -0.0155   -0.0048   -0.0076   -0.0076   -0.0005
          25   -0.0992    0.1653   -0.0599   -0.0253   -0.0714    0.0259    0.0434    0.0293
          26    0.0836   -0.1621   -0.0595   -0.0410    0.0105    0.0917   -0.0207   -0.0296
          27    0.0064    0.0021   -0.0222   -0.0113   -0.0106    0.0198    0.0035   -0.0003
          28    0.0314    0.0554   -0.1008   -0.0990    0.0626   -0.0301   -0.0568    0.0856
          29   -0.0326   -0.0321   -0.0210   -0.0346    0.0394    0.0013   -0.0295    0.1113
          30   -0.0116   -0.0201    0.0217    0.0096   -0.0017    0.0044    0.0054    0.0020
          31    0.0561   -0.0059    0.0121    0.0653   -0.0745    0.0486    0.0435   -0.1048
          32    0.0148    0.0767    0.0794    0.0765    0.0039   -0.0970    0.0165   -0.0882
          33   -0.0102    0.0080    0.0190   -0.0041    0.0102   -0.0283   -0.0073    0.0059
          34   -0.0300   -0.0165   -0.0170   -0.0544   -0.0029   -0.0564    0.0775   -0.0913
          35    0.0253   -0.0667   -0.1244   -0.0469   -0.0414   -0.0981    0.0233   -0.0771
          36   -0.0139    0.0102    0.0258   -0.0015    0.0065    0.0054    0.0134    0.0035
          37    0.1431   -0.0591    0.0854    0.0482    0.0820   -0.0379   -0.0532    0.0858
          38    0.1412    0.0519    0.0272    0.0152    0.0199    0.1119   -0.0485    0.0905
          39   -0.0078   -0.0174    0.0169    0.0004    0.0073   -0.0298   -0.0004   -0.0027
          40    0.0292   -0.0168    0.0369   -0.0883    0.0435   -0.0070    0.2566    0.0899
          41   -0.0339   -0.0309    0.0438   -0.0721    0.0041   -0.0343    0.0588    0.0240
          42   -0.0710   -0.0153   -0.0200    0.0593   -0.0051    0.0242   -0.1599   -0.0686
          43   -0.0141   -0.0228   -0.0157    0.0078    0.0345    0.0227    0.0221   -0.0176
          44    0.0710    0.0253   -0.0105    0.0100   -0.0035   -0.0031   -0.0027    0.0032
          45    0.0332    0.0099   -0.0115    0.0107    0.0061    0.0014    0.0009   -0.0042
          46    0.0418    0.0199    0.0116   -0.0235   -0.0368   -0.0527   -0.0769   -0.0188
          47    0.0660    0.0235   -0.0119    0.0109   -0.0081   -0.0035   -0.0030    0.0016
          48    0.0145    0.0043   -0.0189    0.0301    0.0154    0.0323    0.0301    0.0092


   Root No.      25        26        27        28        29        30        31        32

                25 A      26 A      27 A      28 A      29 A      30 A      31 A      32 A   

                1278.1    1280.4    1309.6    1407.6    1411.2    1413.1    1455.3    1860.1
  
           1   -0.0166    0.0188   -0.0187   -0.0341   -0.0283   -0.0102   -0.0270   -0.0296
           2    0.0138   -0.0212   -0.0253   -0.0325   -0.0204   -0.0155   -0.0249   -0.0153
           3    0.0095    0.0155    0.0137    0.0381    0.0278    0.0151    0.0214    0.0289
           4   -0.0036   -0.0334    0.0194    0.0151    0.0092   -0.0246    0.0236    0.0006
           5   -0.0366   -0.0198    0.0155    0.0086    0.0008    0.0263   -0.0227   -0.0027
           6   -0.0031   -0.0021   -0.0048   -0.0066   -0.0049   -0.0024   -0.0030    0.0013
           7   -0.0224   -0.0361    0.0109    0.0002    0.0302   -0.0051   -0.0219    0.0009
           8   -0.0301   -0.0006    0.0181    0.0208   -0.0210    0.0060    0.0214   -0.0003
           9   -0.0009   -0.0041   -0.0038   -0.0060   -0.0042   -0.0023   -0.0026   -0.0018
          10   -0.0130    0.0503   -0.0012   -0.0171    0.0035    0.0188    0.0259    0.0017
          11    0.0458   -0.0199   -0.0038   -0.0190    0.0139    0.0080    0.0261    0.0027
          12    0.0007    0.0009    0.0015    0.0024    0.0010    0.0004    0.0001    0.0002
          13   -0.0047   -0.0055   -0.0280    0.0040    0.0027    0.0012    0.0004    0.2249
          14    0.0034    0.0084    0.0054    0.0178    0.0123    0.0079    0.0100    0.0172
          15   -0.0077   -0.0090    0.0023   -0.0259   -0.0192   -0.0112   -0.0129   -0.0726
          16    0.0061   -0.0001   -0.0102    0.0230    0.0181    0.0088    0.0134   -0.1991
          17   -0.0011   -0.0019   -0.0003   -0.0032   -0.0022   -0.0016   -0.0015    0.0036
          18    0.0019    0.0025    0.0014   -0.0003   -0.0005    0.0003   -0.0011    0.0343
          19    0.0412   -0.0217    0.0187    0.0389    0.0372    0.0011    0.0245    0.0270
          20   -0.0117    0.0507    0.0333    0.0387    0.0128    0.0221    0.0204    0.0042
          21   -0.0072   -0.0002   -0.0316   -0.0297   -0.0194   -0.0086   -0.0250   -0.0096
          22    0.1175   -0.0493   -0.0040    0.1021   -0.0178   -0.0722   -0.0704    0.0012
          23   -0.0366    0.1293   -0.0003    0.1075   -0.0469   -0.0414   -0.0713   -0.0002
          24   -0.0241   -0.0235    0.0017   -0.1165    0.0414    0.0691    0.0947    0.0026
          25    0.1168   -0.0547   -0.0078    0.1004   -0.0220   -0.0765   -0.0752   -0.0001
          26   -0.0417    0.1273   -0.0056    0.1052   -0.0525   -0.0453   -0.0764    0.0001
          27    0.0202    0.0192   -0.0034    0.1083   -0.0407   -0.0663   -0.0909   -0.0023
          28    0.0790    0.0046   -0.0425    0.0100   -0.1389    0.0274    0.0575    0.0003
          29    0.0689    0.0953   -0.0103   -0.0303    0.1496   -0.0153   -0.0410    0.0075
          30   -0.0039    0.0231    0.0096   -0.0328    0.1587   -0.0267   -0.0696    0.0036
          31    0.0742    0.0440   -0.0457   -0.0321   -0.0318    0.1318   -0.0683   -0.0040
          32    0.0168    0.0847   -0.0484   -0.0386    0.0018   -0.1351    0.0607   -0.0030
          33   -0.0163    0.0106   -0.0022   -0.0041    0.0150   -0.1473    0.0782    0.0052
          34    0.0911    0.0676   -0.0208    0.0122    0.0006    0.1471   -0.0461    0.0026
          35    0.0147    0.0890   -0.0475   -0.0331    0.0050   -0.1290    0.0613    0.0022
          36    0.0169   -0.0085    0.0080    0.0139   -0.0089    0.1529   -0.0754    0.0023
          37    0.0746    0.0017   -0.0433    0.0054   -0.1498    0.0262    0.0568   -0.0022
          38    0.0542    0.0652   -0.0310   -0.0727    0.1191   -0.0321   -0.0620   -0.0068
          39    0.0046   -0.0180   -0.0046    0.0412   -0.1481    0.0291    0.0720    0.0008
          40   -0.0501    0.0175   -0.0012   -0.0311   -0.0249   -0.0166   -0.0131    0.0188
          41   -0.0054    0.0108    0.0072    0.0026    0.0021    0.0002    0.0022   -0.0720
          42    0.0264   -0.0292   -0.0232   -0.0062   -0.0025   -0.0017   -0.0071    0.1148
          43    0.0467    0.0240    0.2570   -0.0719   -0.0529   -0.0275   -0.0278   -0.0100
          44   -0.0132   -0.0094   -0.0853    0.0279    0.0212    0.0102    0.0118   -0.0777
          45    0.0146    0.0093    0.0883   -0.0347   -0.0262   -0.0130   -0.0169    0.1307
          46    0.0558    0.0398    0.2208   -0.0293   -0.0223   -0.0087   -0.0094   -0.0274
          47    0.0115    0.0127    0.0731   -0.0171   -0.0142   -0.0059   -0.0066    0.0831
          48   -0.0361   -0.0260   -0.1656    0.0399    0.0299    0.0140    0.0176   -0.1321


   Root No.      33        34        35        36        37        38        39        40

                33 A      34 A      35 A      36 A      37 A      38 A      39 A      40 A   

                2946.9    3028.3    3036.9    3038.4    3049.6    3103.5    3107.2    3109.3
  
           1   -0.0252   -0.0008    0.0002   -0.0005   -0.0006    0.0006    0.0002   -0.0005
           2   -0.0249   -0.0007    0.0000   -0.0003   -0.0006   -0.0004    0.0007   -0.0003
           3   -0.0525   -0.0017    0.0002   -0.0007   -0.0016   -0.0001   -0.0001   -0.0002
           4   -0.0007   -0.0010    0.0010    0.0003   -0.0008    0.0207    0.0035    0.0056
           5   -0.0002    0.0005   -0.0007    0.0002    0.0005   -0.0211   -0.0039   -0.0052
           6    0.0044   -0.0231    0.0182    0.0142   -0.0136   -0.0034   -0.0005   -0.0008
           7   -0.0002    0.0000    0.0000   -0.0001    0.0000    0.0062   -0.0151   -0.0109
           8   -0.0008   -0.0002   -0.0002   -0.0003   -0.0004   -0.0063    0.0147    0.0113
           9    0.0041   -0.0115   -0.0212   -0.0143   -0.0216    0.0002   -0.0007   -0.0005
          10    0.0004    0.0003    0.0001    0.0000   -0.0003   -0.0021   -0.0130    0.0143
          11    0.0005    0.0003    0.0001    0.0000   -0.0003   -0.0029   -0.0125    0.0143
          12   -0.0004    0.0235    0.0096    0.0024   -0.0239   -0.0003    0.0001   -0.0004
          13    0.0014   -0.0019    0.0098   -0.0230    0.0008   -0.0006   -0.0002   -0.0002
          14   -0.0007    0.0011   -0.0067    0.0156   -0.0008    0.0004    0.0001    0.0001
          15    0.0009   -0.0016    0.0090   -0.0215    0.0010   -0.0006   -0.0001   -0.0002
          16   -0.0002    0.0001   -0.0005    0.0013    0.0000    0.0000    0.0000    0.0000
          17    0.0000   -0.0001    0.0005   -0.0013    0.0001   -0.0001    0.0000    0.0000
          18   -0.0001    0.0001   -0.0008    0.0020   -0.0001    0.0001    0.0001    0.0001
          19    0.3051    0.0107   -0.0020    0.0016    0.0090    0.0017    0.0002    0.0014
          20    0.3053    0.0099    0.0006    0.0047    0.0095    0.0005    0.0006    0.0016
          21    0.6361    0.0188   -0.0026    0.0086    0.0163    0.0019    0.0005    0.0030
          22    0.0022   -0.0788   -0.0308   -0.0071    0.0819    0.0168    0.0798   -0.0896
          23    0.0021   -0.0770   -0.0335   -0.0092    0.0804    0.0160    0.0793   -0.0885
          24    0.0047   -0.1387   -0.0565   -0.0142    0.1398    0.0331    0.1629   -0.1827
          25    0.0010    0.0753    0.0295    0.0068   -0.0785    0.0135    0.0729   -0.0841
          26    0.0010    0.0736    0.0322    0.0089   -0.0770    0.0122    0.0725   -0.0830
          27   -0.0016   -0.1450   -0.0593   -0.0151    0.1464   -0.0296   -0.1639    0.1877
          28   -0.0154    0.0361    0.0690    0.0467    0.0717   -0.0436    0.0948    0.0714
          29    0.0099   -0.0370   -0.0679   -0.0459   -0.0682    0.0422   -0.0923   -0.0688
          30   -0.0268    0.0668    0.1229    0.0827    0.1232   -0.0895    0.1952    0.1462
          31   -0.0110    0.0826   -0.0669   -0.0473    0.0492   -0.1170   -0.0182   -0.0286
          32    0.0139   -0.0772    0.0643    0.0471   -0.0490    0.1114    0.0169    0.0277
          33   -0.0268    0.1516   -0.1226   -0.0890    0.0908   -0.2522   -0.0390   -0.0621
          34    0.0101   -0.0695    0.0529    0.0459   -0.0397   -0.1369   -0.0215   -0.0333
          35   -0.0160    0.0707   -0.0561   -0.0482    0.0432    0.1442    0.0222    0.0355
          36   -0.0276    0.1259   -0.0956   -0.0842    0.0715    0.2925    0.0455    0.0716
          37    0.0127   -0.0355   -0.0683   -0.0470   -0.0719   -0.0387    0.0825    0.0622
          38   -0.0097    0.0389    0.0719    0.0490    0.0730    0.0404   -0.0868   -0.0646
          39   -0.0246    0.0716    0.1327    0.0906    0.1348    0.0870   -0.1869   -0.1399
          40   -0.0136    0.0179   -0.1014    0.2443   -0.0104    0.0073    0.0014    0.0020
          41    0.0066   -0.0145    0.0782   -0.1868    0.0073   -0.0049   -0.0010   -0.0014
          42   -0.0119    0.0204   -0.1100    0.2631   -0.0104    0.0068    0.0014    0.0019
          43   -0.0001    0.0010   -0.0059    0.0142   -0.0006    0.0007    0.0004    0.0005
          44   -0.0010    0.0012   -0.0070    0.0167   -0.0007    0.0007    0.0004    0.0005
          45    0.0002   -0.0022    0.0130   -0.0309    0.0014   -0.0014   -0.0008   -0.0010
          46    0.0001    0.0005   -0.0015    0.0030    0.0001   -0.0003    0.0001   -0.0002
          47    0.0008   -0.0003    0.0007   -0.0013   -0.0002    0.0002   -0.0001    0.0002
          48   -0.0007    0.0003   -0.0009    0.0015    0.0002   -0.0003    0.0001   -0.0003


   Root No.      41        42

                41 A      42 A   

                3139.8    3148.4
  
           1   -0.0005   -0.0004
           2   -0.0001   -0.0001
           3    0.0002    0.0001
           4    0.0001    0.0001
           5   -0.0001    0.0000
           6    0.0001    0.0000
           7    0.0000   -0.0001
           8    0.0000    0.0001
           9    0.0001    0.0000
          10    0.0000    0.0000
          11    0.0000    0.0000
          12    0.0000    0.0000
          13    0.0029   -0.0093
          14    0.0007    0.0024
          15   -0.0018   -0.0021
          16   -0.0341    0.0397
          17    0.0332    0.0165
          18   -0.0490   -0.0359
          19   -0.0005   -0.0001
          20    0.0003    0.0002
          21    0.0008    0.0010
          22   -0.0002    0.0000
          23   -0.0003    0.0000
          24   -0.0005    0.0000
          25   -0.0002    0.0000
          26   -0.0001   -0.0001
          27    0.0004    0.0001
          28    0.0000    0.0003
          29    0.0001   -0.0004
          30    0.0002    0.0007
          31   -0.0007   -0.0001
          32    0.0007    0.0004
          33   -0.0016   -0.0008
          34   -0.0002   -0.0003
          35    0.0001    0.0004
          36    0.0003    0.0008
          37    0.0001    0.0004
          38   -0.0003   -0.0005
          39   -0.0004   -0.0010
          40    0.0132    0.0367
          41   -0.0068   -0.0259
          42    0.0085    0.0361
          43   -0.0932   -0.2852
          44   -0.0733   -0.2881
          45    0.1429    0.5445
          46    0.4586   -0.1095
          47   -0.3231    0.0900
          48    0.4507   -0.1294


           MASS-WEIGHTED COORDINATE ANALYSIS (NORMAL COORDINATES)


   Root No.       1         2         3         4         5         6         7         8

                 1 A       2 A       3 A       4 A       5 A       6 A       7 A       8 A   

                  74.1     151.1     253.1     392.1     464.3     642.0     764.3     824.6
  
           1    0.0757   -0.0856   -0.1371    0.0360   -0.1940   -0.0937    0.2425   -0.0939
           2   -0.1660   -0.0043    0.2330    0.0842    0.1466   -0.0313    0.2364   -0.0918
           3   -0.1461   -0.1543   -0.1040    0.4480    0.0246    0.0650    0.2614   -0.1045
           4    0.0762   -0.0837   -0.1214    0.0327   -0.3258   -0.1041    0.2032   -0.1152
           5    0.0637   -0.0753   -0.0069    0.0850   -0.1378    0.1226   -0.2490    0.0872
           6    0.0577   -0.2171    0.2944   -0.1948    0.1652   -0.0044    0.0796    0.0972
           7   -0.1546   -0.0175    0.1387    0.0875   -0.1261    0.1168   -0.2464    0.0866
           8   -0.1648   -0.0042    0.2360    0.0922    0.1676    0.1165    0.1922   -0.1153
           9   -0.1137   -0.3020   -0.2677   -0.2164   -0.0344   -0.0290    0.0862    0.0956
          10   -0.1492   -0.0065    0.1526    0.0966   -0.1123    0.1111   -0.2405    0.0927
          11    0.0665   -0.0674   -0.0269    0.0882   -0.1490    0.1094   -0.2370    0.0914
          12    0.2038    0.4504   -0.0334   -0.0416    0.0213   -0.0133    0.0298    0.2273
          13    0.0347    0.0956   -0.0907   -0.0825    0.4035   -0.0403    0.0040    0.0108
          14   -0.2882    0.2503   -0.0826   -0.2451   -0.1141   -0.4912    0.0528    0.0180
          15   -0.2327    0.0886   -0.2432    0.2456    0.1491   -0.0644   -0.2481   -0.0015
          16    0.1239    0.0933   -0.0002   -0.1425    0.3765   -0.0187    0.0490    0.0169
          17    0.4567   -0.0810   -0.2908   -0.0670    0.0898    0.0149    0.0451    0.0047
          18    0.2011    0.1196    0.3114   -0.0661   -0.2674    0.0496   -0.0880   -0.0020
          19    0.0712   -0.0637   -0.0054   -0.0361   -0.1210   -0.0359    0.1335   -0.0414
          20   -0.0683   -0.0396    0.0854   -0.0170    0.0640    0.0706    0.1312   -0.0428
          21   -0.0557   -0.0065   -0.0546    0.1638    0.0271   -0.0155    0.0110   -0.0163
          22   -0.1170   -0.1334    0.0319   -0.0182   -0.0143    0.0429   -0.0201    0.3250
          23    0.0143   -0.1480    0.0263   -0.0236   -0.0423    0.0192   -0.0199    0.3224
          24    0.1023    0.2736   -0.0215    0.0414   -0.0054   -0.0014   -0.0525   -0.2785
          25   -0.0074    0.1464    0.1066    0.0842   -0.0012    0.0588   -0.1486   -0.2722
          26    0.0649    0.1005   -0.0916    0.0710   -0.1053    0.0252   -0.1417   -0.2702
          27    0.0998    0.2658   -0.0204    0.0397   -0.0083    0.0050   -0.0683   -0.2535
          28   -0.0107    0.1381    0.1099    0.0844    0.0009    0.0796   -0.0283    0.2725
          29   -0.0636   -0.0334    0.0606   -0.1257    0.0444   -0.0161   -0.1016   -0.0788
          30   -0.0597   -0.1827   -0.1200   -0.1784   -0.0331   -0.0613   -0.0905   -0.1387
          31    0.0085   -0.0080   -0.1327    0.1480   -0.1656   -0.0216    0.2215   -0.0081
          32    0.0121   -0.1533    0.0405   -0.0309   -0.0250    0.0400   -0.1555   -0.2228
          33    0.0204   -0.1382    0.1599   -0.1613    0.0973   -0.0038   -0.1085   -0.1215
          34    0.0747   -0.0526    0.0194   -0.1409   -0.0709   -0.0471   -0.0958   -0.0783
          35    0.0639    0.0942   -0.0905    0.0721   -0.1133    0.0294   -0.0243    0.2717
          36    0.0191   -0.1415    0.1629   -0.1637    0.1017   -0.0065   -0.0925   -0.1380
          37   -0.1213   -0.1393    0.0236   -0.0270   -0.0364    0.0267   -0.1508   -0.2257
          38   -0.0728    0.0424    0.1265    0.1857    0.0902    0.1110    0.2236   -0.0095
          39   -0.0579   -0.1782   -0.1176   -0.1757   -0.0328   -0.0570   -0.1058   -0.1213
          40   -0.0178    0.0747    0.0225   -0.0887    0.1263    0.0012   -0.0228    0.0251
          41   -0.3000    0.2105   -0.1359   -0.2842   -0.0773    0.0073   -0.0171    0.0535
          42   -0.1950    0.0805   -0.1902   -0.0233   -0.0016    0.0741   -0.0702    0.0129
          43    0.0322    0.0784    0.1335   -0.1700   -0.0615   -0.0284    0.2106   -0.0112
          44    0.1113    0.0251   -0.2311   -0.1924    0.0194    0.5860    0.1052   -0.0520
          45    0.0452    0.0882    0.0872   -0.1808   -0.1794    0.3070    0.1323   -0.0383
          46    0.0643   -0.0255   -0.1086    0.0686    0.2685    0.0234   -0.1402    0.0214
          47    0.3491   -0.1608   -0.0037    0.2155    0.1342   -0.3232   -0.1400    0.0483
          48    0.1849   -0.0101    0.2612    0.0352   -0.1666   -0.2525    0.0282    0.0158


   Root No.       9        10        11        12        13        14        15        16

                 9 A      10 A      11 A      12 A      13 A      14 A      15 A      16 A   

                 868.5     901.7     926.7     981.7     997.0    1019.7    1026.4    1039.8
  
           1   -0.0021   -0.0137    0.0237    0.1216   -0.0834   -0.0339   -0.0997    0.3519
           2    0.0001   -0.0521   -0.0620   -0.2539   -0.0325    0.1674   -0.0877    0.0027
           3   -0.0098    0.1827    0.0385    0.0079    0.0073    0.0691   -0.0078    0.0177
           4    0.0740   -0.3507   -0.0719   -0.1077    0.1426    0.1218    0.0786   -0.1825
           5   -0.0213    0.0786    0.0117    0.0664   -0.0631   -0.1163   -0.1515   -0.3872
           6   -0.2660    0.0718    0.0543   -0.1050   -0.0899   -0.0453    0.0673   -0.0575
           7    0.0168    0.0743    0.0066   -0.0116    0.1205    0.0406    0.2712    0.1114
           8   -0.0574   -0.2804    0.0602    0.3829   -0.0119   -0.1187   -0.0169    0.1259
           9    0.2626    0.0857    0.0230   -0.0850   -0.0122   -0.1079   -0.0195   -0.0616
          10   -0.0185    0.1718   -0.0028   -0.1072   -0.1333   -0.0067   -0.2403   -0.0510
          11    0.0092    0.1809    0.0122   -0.0907    0.0014    0.0744    0.0863    0.3968
          12   -0.0010   -0.0505   -0.0401    0.0489    0.0297    0.0334   -0.0132   -0.0039
          13   -0.0092    0.0757   -0.0229    0.0424    0.0348    0.0249    0.0074   -0.0168
          14    0.0010    0.1047   -0.2879   -0.1061   -0.0736    0.1059   -0.1398   -0.0281
          15    0.0001   -0.1237   -0.1756    0.1395    0.0959    0.1069   -0.0164   -0.0147
          16   -0.0199    0.1113    0.0088   -0.0091   -0.0042   -0.0457    0.0330   -0.0095
          17    0.0117    0.1483   -0.0517    0.0864    0.0795   -0.3012    0.2355   -0.0114
          18   -0.0016   -0.2608   -0.0740   -0.1661   -0.1225   -0.2441    0.0469    0.1141
          19   -0.1183   -0.0661    0.0709    0.1208   -0.3163   -0.2320   -0.1957    0.1880
          20    0.1367   -0.0930    0.0505   -0.3606    0.1963    0.0777    0.2040    0.0032
          21   -0.0116    0.1119   -0.0530    0.1054    0.0470    0.1142   -0.0313   -0.0390
          22    0.1923    0.0132   -0.0398    0.1679   -0.2368   -0.0853   -0.2620   -0.0483
          23   -0.1987   -0.0102   -0.0201   -0.1518    0.2433    0.1502    0.2046    0.1560
          24    0.0007    0.0434    0.0255   -0.0281   -0.0147   -0.0178    0.0070   -0.0104
          25   -0.2378    0.1075    0.0695   -0.0755    0.0456   -0.0691   -0.1047   -0.1439
          26    0.2394    0.1091    0.0026   -0.0519   -0.1212    0.0335    0.0874    0.2196
          27    0.0005    0.0479    0.0254   -0.0258   -0.0125   -0.0191    0.0085   -0.0118
          28    0.2504   -0.0831   -0.0402    0.1694   -0.1238    0.1281    0.3219   -0.0808
          29   -0.2442   -0.2809   -0.0555    0.3862   -0.1350    0.2098    0.2508   -0.0090
          30   -0.1934   -0.0210   -0.0090    0.0330    0.0115    0.0346   -0.0056    0.0180
          31   -0.1887   -0.0544    0.0599   -0.0799   -0.2562    0.0139    0.2998   -0.3504
          32    0.2720    0.0461    0.0046    0.0751   -0.2013    0.0166    0.1777   -0.3655
          33    0.1887    0.0062   -0.0274    0.0292    0.0378    0.0235   -0.0194    0.0133
          34    0.2541   -0.2917   -0.1033    0.1301    0.4290   -0.0171   -0.1978   -0.0513
          35   -0.2511   -0.0909   -0.0041    0.0513    0.2686   -0.1458   -0.1804   -0.1835
          36    0.1936   -0.0133   -0.0257    0.0348    0.0236    0.0254   -0.0183    0.0231
          37   -0.2680    0.0428    0.0560   -0.0313    0.2727   -0.1608   -0.0124   -0.0518
          38    0.2006   -0.0172    0.1018   -0.0324    0.2269   -0.3181   -0.0990   -0.0862
          39   -0.1882   -0.0004   -0.0118    0.0357   -0.0017    0.0361    0.0002    0.0063
          40   -0.0119   -0.0524    0.0543   -0.1776   -0.0937   -0.0230    0.0086   -0.1127
          41    0.0500   -0.0885    0.6223   -0.1022   -0.0472   -0.0962    0.0698   -0.0132
          42    0.0441   -0.0474    0.3949    0.1712    0.1081   -0.0317    0.0668    0.0963
          43    0.0070    0.4148    0.0575    0.2531    0.1743    0.1116    0.0599   -0.1002
          44   -0.0391   -0.0704   -0.0267   -0.0600   -0.0515    0.3895   -0.2524   -0.0266
          45   -0.0150    0.0766    0.0030    0.0535    0.0250    0.2495   -0.1269   -0.0308
          46   -0.0212   -0.2678    0.0173   -0.2303   -0.1606   -0.0148   -0.0908    0.0490
          47    0.0302   -0.1250    0.4205   -0.0468   -0.0328    0.3336   -0.2067   -0.0360
          48    0.0347    0.1231    0.2783    0.1422    0.0927    0.2340   -0.0788   -0.0444


   Root No.      17        18        19        20        21        22        23        24

                17 A      18 A      19 A      20 A      21 A      22 A      23 A      24 A   

                1046.7    1082.1    1117.1    1133.0    1169.8    1187.3    1207.8    1248.3
  
           1   -0.0648    0.1512   -0.0210    0.1039   -0.1876   -0.3161   -0.0291    0.2609
           2   -0.2329   -0.1786    0.0799   -0.1737    0.2824   -0.0689   -0.1343   -0.2421
           3   -0.0907   -0.0704    0.0572   -0.1756    0.1040   -0.3219    0.0716    0.0643
           4   -0.0895   -0.1418    0.0997   -0.0747    0.0101    0.3355   -0.0721    0.1173
           5   -0.0702    0.0063   -0.0615    0.0110    0.1289   -0.1219   -0.2105    0.2473
           6    0.1302   -0.2218   -0.2413   -0.0266   -0.1894    0.1203   -0.0304    0.0061
           7    0.3073    0.0088   -0.0372   -0.0351    0.0005   -0.2682    0.0818   -0.2629
           8    0.0673    0.1253    0.0488    0.0520   -0.2754    0.1433    0.1604   -0.1525
           9    0.0751    0.2948   -0.1740   -0.1821   -0.0540    0.1507   -0.0375   -0.0333
          10   -0.2923   -0.0352    0.0453    0.0112    0.0287    0.2973   -0.0394   -0.0431
          11    0.0293    0.0314    0.0401    0.0418   -0.1686    0.1298    0.1855    0.0524
          12    0.0006   -0.0074    0.4027    0.2304    0.0999   -0.0804    0.0135    0.0018
          13    0.0007   -0.0029   -0.0347    0.0547    0.0167    0.0479   -0.0187   -0.0148
          14    0.2226    0.1271   -0.0610    0.0446   -0.0962   -0.0818   -0.1005    0.0318
          15   -0.0152    0.0136   -0.1589    0.2333    0.1732    0.2209    0.2252    0.0051
          16    0.0081   -0.0154   -0.0017   -0.0155   -0.0239   -0.0342   -0.1645   -0.0717
          17   -0.1964   -0.0960    0.0382   -0.0494    0.0571    0.0343    0.0868    0.0042
          18   -0.0549    0.0196    0.0513   -0.0430   -0.0788   -0.0876   -0.1310   -0.0079
          19    0.0929    0.1404   -0.1723    0.0575    0.6000    0.0069    0.1043   -0.2017
          20   -0.2033   -0.0751   -0.3225    0.4975    0.0041   -0.2000    0.0942    0.2021
          21   -0.0156   -0.0567    0.2611   -0.3310   -0.2461   -0.0558   -0.0935    0.0226
          22   -0.0527   -0.3219    0.1263    0.2362   -0.1529   -0.0256    0.1204    0.0974
          23   -0.0431    0.3124    0.2390   -0.0266    0.1839    0.1498   -0.0364   -0.0932
          24    0.0160    0.0051   -0.0721   -0.0410   -0.0117   -0.0171   -0.0182   -0.0013
          25   -0.2569    0.4196   -0.1622   -0.0669   -0.1724    0.0583    0.1034    0.0774
          26    0.2164   -0.4117   -0.1612   -0.1082    0.0252    0.2067   -0.0493   -0.0783
          27    0.0165    0.0053   -0.0600   -0.0297   -0.0255    0.0446    0.0083   -0.0008
          28    0.0813    0.1407   -0.2730   -0.2615    0.1511   -0.0678   -0.1355    0.2265
          29   -0.0843   -0.0816   -0.0567   -0.0914    0.0950    0.0029   -0.0703    0.2944
          30   -0.0300   -0.0510    0.0586    0.0254   -0.0042    0.0100    0.0129    0.0054
          31    0.1452   -0.0149    0.0328    0.1726   -0.1800    0.1095    0.1038   -0.2771
          32    0.0384    0.1947    0.2150    0.2021    0.0093   -0.2186    0.0394   -0.2334
          33   -0.0263    0.0202    0.0514   -0.0109    0.0246   -0.0639   -0.0174    0.0157
          34   -0.0776   -0.0419   -0.0461   -0.1438   -0.0071   -0.1271    0.1849   -0.2415
          35    0.0656   -0.1693   -0.3369   -0.1240   -0.0999   -0.2210    0.0555   -0.2039
          36   -0.0359    0.0260    0.0698   -0.0039    0.0157    0.0121    0.0321    0.0092
          37    0.3705   -0.1500    0.2312    0.1274    0.1980   -0.0855   -0.1270    0.2270
          38    0.3656    0.1318    0.0737    0.0401    0.0481    0.2522   -0.1157    0.2394
          39   -0.0202   -0.0443    0.0457    0.0009    0.0176   -0.0672   -0.0010   -0.0070
          40    0.0756   -0.0427    0.1000   -0.2332    0.1051   -0.0159    0.6118    0.2378
          41   -0.0878   -0.0786    0.1185   -0.1905    0.0099   -0.0774    0.1401    0.0634
          42   -0.1839   -0.0389   -0.0543    0.1567   -0.0122    0.0544   -0.3813   -0.1813
          43   -0.0365   -0.0579   -0.0426    0.0206    0.0832    0.0511    0.0527   -0.0465
          44    0.1839    0.0642   -0.0285    0.0264   -0.0084   -0.0070   -0.0065    0.0083
          45    0.0859    0.0251   -0.0311    0.0282    0.0148    0.0032    0.0021   -0.0110
          46    0.1083    0.0505    0.0314   -0.0621   -0.0887   -0.1187   -0.1834   -0.0498
          47    0.1709    0.0597   -0.0323    0.0287   -0.0196   -0.0080   -0.0072    0.0043
          48    0.0376    0.0109   -0.0512    0.0794    0.0373    0.0728    0.0717    0.0243


   Root No.      25        26        27        28        29        30        31        32

                25 A      26 A      27 A      28 A      29 A      30 A      31 A      32 A   

                1278.1    1280.4    1309.6    1407.6    1411.2    1413.1    1455.3    1860.1
  
           1   -0.1496    0.1591   -0.1389   -0.2805   -0.2193   -0.0829   -0.2353   -0.0916
           2    0.1245   -0.1794   -0.1881   -0.2676   -0.1586   -0.1259   -0.2165   -0.0472
           3    0.0858    0.1313    0.1015    0.3135    0.2154    0.1223    0.1858    0.0892
           4   -0.0327   -0.2829    0.1438    0.1243    0.0712   -0.1996    0.2055    0.0019
           5   -0.3300   -0.1675    0.1148    0.0705    0.0063    0.2139   -0.1971   -0.0082
           6   -0.0283   -0.0182   -0.0356   -0.0546   -0.0376   -0.0195   -0.0259    0.0042
           7   -0.2021   -0.3061    0.0811    0.0018    0.2343   -0.0417   -0.1903    0.0029
           8   -0.2719   -0.0054    0.1345    0.1710   -0.1628    0.0484    0.1857   -0.0008
           9   -0.0080   -0.0350   -0.0279   -0.0490   -0.0325   -0.0189   -0.0226   -0.0056
          10   -0.1175    0.4259   -0.0092   -0.1404    0.0271    0.1526    0.2252    0.0054
          11    0.4133   -0.1684   -0.0279   -0.1561    0.1077    0.0650    0.2274    0.0083
          12    0.0060    0.0080    0.0113    0.0200    0.0080    0.0029    0.0009    0.0005
          13   -0.0425   -0.0469   -0.2076    0.0333    0.0210    0.0099    0.0032    0.6952
          14    0.0306    0.0712    0.0402    0.1466    0.0952    0.0645    0.0867    0.0532
          15   -0.0691   -0.0762    0.0170   -0.2129   -0.1490   -0.0906   -0.1120   -0.2244
          16    0.0546   -0.0012   -0.0754    0.1892    0.1407    0.0717    0.1169   -0.6155
          17   -0.0101   -0.0165   -0.0019   -0.0267   -0.0168   -0.0127   -0.0126    0.0110
          18    0.0175    0.0208    0.0103   -0.0027   -0.0036    0.0027   -0.0097    0.1060
          19    0.1077   -0.0533    0.0401    0.0929    0.0836    0.0027    0.0616    0.0242
          20   -0.0306    0.1245    0.0716    0.0923    0.0288    0.0520    0.0514    0.0038
          21   -0.0189   -0.0004   -0.0679   -0.0708   -0.0435   -0.0201   -0.0631   -0.0086
          22    0.3070   -0.1210   -0.0086    0.2434   -0.0400   -0.1699   -0.1774    0.0011
          23   -0.0956    0.3173   -0.0007    0.2564   -0.1053   -0.0973   -0.1796   -0.0002
          24   -0.0631   -0.0576    0.0036   -0.2777    0.0930    0.1625    0.2386    0.0023
          25    0.3052   -0.1342   -0.0168    0.2393   -0.0494   -0.1798   -0.1895   -0.0001
          26   -0.1089    0.3124   -0.0121    0.2508   -0.1179   -0.1066   -0.1926    0.0001
          27    0.0529    0.0472   -0.0073    0.2582   -0.0914   -0.1559   -0.2291   -0.0021
          28    0.2066    0.0113   -0.0914    0.0239   -0.3122    0.0644    0.1450    0.0003
          29    0.1800    0.2339   -0.0221   -0.0721    0.3362   -0.0360   -0.1033    0.0067
          30   -0.0102    0.0566    0.0207   -0.0783    0.3567   -0.0627   -0.1755    0.0032
          31    0.1939    0.1080   -0.0982   -0.0766   -0.0714    0.3100   -0.1720   -0.0036
          32    0.0438    0.2078   -0.1041   -0.0921    0.0040   -0.3179    0.1529   -0.0027
          33   -0.0426    0.0259   -0.0047   -0.0098    0.0336   -0.3465    0.1971    0.0047
          34    0.2382    0.1658   -0.0448    0.0290    0.0012    0.3460   -0.1161    0.0023
          35    0.0385    0.2184   -0.1021   -0.0790    0.0112   -0.3034    0.1544    0.0019
          36    0.0442   -0.0210    0.0173    0.0331   -0.0201    0.3596   -0.1899    0.0021
          37    0.1950    0.0041   -0.0931    0.0129   -0.3366    0.0615    0.1430   -0.0020
          38    0.1415    0.1601   -0.0667   -0.1734    0.2677   -0.0756   -0.1562   -0.0061
          39    0.0119   -0.0441   -0.0099    0.0982   -0.3329    0.0685    0.1815    0.0007
          40   -0.1308    0.0429   -0.0025   -0.0741   -0.0560   -0.0390   -0.0330    0.0169
          41   -0.0142    0.0264    0.0155    0.0061    0.0047    0.0005    0.0056   -0.0644
          42    0.0690   -0.0716   -0.0498   -0.0147   -0.0056   -0.0040   -0.0179    0.1028
          43    0.1220    0.0588    0.5527   -0.1715   -0.1189   -0.0647   -0.0701   -0.0089
          44   -0.0345   -0.0231   -0.1834    0.0666    0.0476    0.0240    0.0298   -0.0695
          45    0.0382    0.0229    0.1898   -0.0826   -0.0589   -0.0305   -0.0425    0.1170
          46    0.1457    0.0975    0.4748   -0.0698   -0.0500   -0.0205   -0.0238   -0.0245
          47    0.0300    0.0312    0.1573   -0.0408   -0.0320   -0.0139   -0.0166    0.0744
          48   -0.0944   -0.0639   -0.3563    0.0952    0.0671    0.0330    0.0444   -0.1182


   Root No.      33        34        35        36        37        38        39        40

                33 A      34 A      35 A      36 A      37 A      38 A      39 A      40 A   

                2946.9    3028.3    3036.9    3038.4    3049.6    3103.5    3107.2    3109.3
  
           1   -0.1085   -0.0069    0.0019   -0.0033   -0.0056    0.0042    0.0019   -0.0040
           2   -0.1072   -0.0063    0.0000   -0.0019   -0.0056   -0.0030    0.0052   -0.0021
           3   -0.2261   -0.0145    0.0020   -0.0047   -0.0142   -0.0010   -0.0005   -0.0018
           4   -0.0030   -0.0090    0.0093    0.0022   -0.0068    0.1427    0.0272    0.0456
           5   -0.0010    0.0048   -0.0067    0.0013    0.0041   -0.1453   -0.0306   -0.0427
           6    0.0191   -0.2015    0.1660    0.1013   -0.1189   -0.0231   -0.0042   -0.0066
           7   -0.0008   -0.0003   -0.0003   -0.0004    0.0003    0.0429   -0.1179   -0.0893
           8   -0.0036   -0.0016   -0.0021   -0.0025   -0.0034   -0.0433    0.1145    0.0925
           9    0.0176   -0.1005   -0.1933   -0.1020   -0.1880    0.0014   -0.0053   -0.0044
          10    0.0019    0.0026    0.0011    0.0003   -0.0023   -0.0143   -0.1011    0.1165
          11    0.0019    0.0028    0.0008    0.0001   -0.0022   -0.0200   -0.0973    0.1167
          12   -0.0018    0.2050    0.0877    0.0174   -0.2084   -0.0021    0.0006   -0.0034
          13    0.0060   -0.0170    0.0890   -0.1644    0.0070   -0.0044   -0.0012   -0.0015
          14   -0.0030    0.0096   -0.0608    0.1112   -0.0069    0.0028    0.0007    0.0011
          15    0.0037   -0.0137    0.0819   -0.1537    0.0084   -0.0040   -0.0007   -0.0014
          16   -0.0008    0.0010   -0.0049    0.0089   -0.0004    0.0002   -0.0002    0.0000
          17   -0.0001   -0.0008    0.0049   -0.0094    0.0005   -0.0006   -0.0001   -0.0004
          18   -0.0006    0.0010   -0.0074    0.0139   -0.0010    0.0009    0.0004    0.0008
          19    0.3803    0.0272   -0.0053    0.0034    0.0227    0.0033    0.0004    0.0033
          20    0.3805    0.0252    0.0015    0.0097    0.0241    0.0009    0.0012    0.0037
          21    0.7928    0.0477   -0.0068    0.0178    0.0412    0.0039    0.0011    0.0070
          22    0.0027   -0.1993   -0.0814   -0.0146    0.2067    0.0335    0.1801   -0.2119
          23    0.0026   -0.1950   -0.0885   -0.0190    0.2031    0.0319    0.1790   -0.2092
          24    0.0058   -0.3511   -0.1492   -0.0294    0.3531    0.0659    0.3677   -0.4321
          25    0.0012    0.1906    0.0780    0.0141   -0.1981    0.0269    0.1647   -0.1989
          26    0.0012    0.1863    0.0851    0.0184   -0.1944    0.0244    0.1637   -0.1964
          27   -0.0020   -0.3669   -0.1567   -0.0312    0.3696   -0.0590   -0.3701    0.4440
          28   -0.0192    0.0913    0.1823    0.0967    0.1810   -0.0869    0.2140    0.1689
          29    0.0124   -0.0937   -0.1794   -0.0949   -0.1723    0.0841   -0.2083   -0.1628
          30   -0.0334    0.1691    0.3249    0.1711    0.3110   -0.1784    0.4406    0.3458
          31   -0.0137    0.2090   -0.1768   -0.0978    0.1242   -0.2331   -0.0411   -0.0676
          32    0.0173   -0.1954    0.1700    0.0974   -0.1236    0.2220    0.0383    0.0654
          33   -0.0334    0.3836   -0.3240   -0.1842    0.2293   -0.5026   -0.0881   -0.1469
          34    0.0125   -0.1758    0.1398    0.0950   -0.1002   -0.2728   -0.0484   -0.0787
          35   -0.0200    0.1791   -0.1484   -0.0997    0.1090    0.2873    0.0502    0.0840
          36   -0.0344    0.3186   -0.2527   -0.1741    0.1805    0.5828    0.1028    0.1694
          37    0.0159   -0.0899   -0.1806   -0.0971   -0.1815   -0.0771    0.1864    0.1471
          38   -0.0121    0.0985    0.1900    0.1014    0.1844    0.0805   -0.1960   -0.1529
          39   -0.0307    0.1812    0.3508    0.1873    0.3404    0.1733   -0.4220   -0.3310
          40   -0.0169    0.0452   -0.2679    0.5055   -0.0263    0.0146    0.0033    0.0047
          41    0.0082   -0.0367    0.2066   -0.3865    0.0185   -0.0098   -0.0022   -0.0033
          42   -0.0148    0.0516   -0.2908    0.5444   -0.0264    0.0135    0.0031    0.0045
          43   -0.0001    0.0026   -0.0156    0.0293   -0.0016    0.0013    0.0009    0.0012
          44   -0.0013    0.0030   -0.0184    0.0344   -0.0019    0.0015    0.0009    0.0012
          45    0.0003   -0.0057    0.0343   -0.0639    0.0035   -0.0027   -0.0017   -0.0023
          46    0.0002    0.0013   -0.0040    0.0061    0.0004   -0.0006    0.0003   -0.0006
          47    0.0010   -0.0007    0.0018   -0.0028   -0.0004    0.0004   -0.0001    0.0005
          48   -0.0009    0.0009   -0.0023    0.0031    0.0004   -0.0006    0.0002   -0.0006


   Root No.      41        42

                41 A      42 A   

                3139.8    3148.4
  
           1   -0.0023   -0.0017
           2   -0.0003   -0.0006
           3    0.0007    0.0006
           4    0.0003    0.0006
           5   -0.0004   -0.0002
           6    0.0003   -0.0001
           7   -0.0002   -0.0005
           8    0.0000    0.0003
           9    0.0004    0.0002
          10    0.0002    0.0001
          11    0.0002    0.0000
          12    0.0001    0.0000
          13    0.0128   -0.0438
          14    0.0031    0.0113
          15   -0.0078   -0.0101
          16   -0.1508    0.1866
          17    0.1470    0.0774
          18   -0.2169   -0.1688
          19   -0.0007   -0.0001
          20    0.0003    0.0003
          21    0.0010    0.0014
          22   -0.0003    0.0000
          23   -0.0004    0.0000
          24   -0.0007    0.0000
          25   -0.0002   -0.0001
          26   -0.0001   -0.0001
          27    0.0005    0.0002
          28    0.0000    0.0004
          29    0.0001   -0.0005
          30    0.0002    0.0010
          31   -0.0009   -0.0002
          32    0.0009    0.0005
          33   -0.0021   -0.0011
          34   -0.0002   -0.0004
          35    0.0002    0.0005
          36    0.0003    0.0011
          37    0.0002    0.0006
          38   -0.0004   -0.0007
          39   -0.0005   -0.0014
          40    0.0169    0.0499
          41   -0.0087   -0.0353
          42    0.0109    0.0491
          43   -0.1195   -0.3883
          44   -0.0940   -0.3922
          45    0.1832    0.7413
          46    0.5880   -0.1491
          47   -0.4143    0.1225
          48    0.5778   -0.1762


          DESCRIPTION OF VIBRATIONS


 VIBRATION    1    1A       ATOM PAIR        ENERGY CONTRIBUTION    RADIAL
 FREQ.        74.09        C  5 --  C  6          +14.3% (580.8%)     0.0%
 T-DIPOLE    0.0251        C  1 --  C  4           +9.8% (480.6%)     0.0%
 TRAVEL      0.0523        C  3 --  C  4           +9.4% (471.2%)     0.0%
 RED. MASS   1.2572        C  1 --  C  3           +6.8% (401.5%)     0.0%
 EFF. MASS 332.7388

 VIBRATION    2    2A       ATOM PAIR        ENERGY CONTRIBUTION    RADIAL
 FREQ.       151.09        C  3 --  C  4          +15.8% (422.1%)     0.0%
 T-DIPOLE    0.0070        C  2 --  C  4          +13.4% (389.3%)     0.0%
 TRAVEL      0.0540        C  1 --  C  4          +10.9% (351.3%)     0.0%
 RED. MASS   0.7955        C  4 --  H  8           +9.8% (333.5%)    98.0%
 EFF. MASS 153.2655

 VIBRATION    3    3A       ATOM PAIR        ENERGY CONTRIBUTION    RADIAL
 FREQ.       253.06        C  5 --  C  6          +12.2% (217.6%)     0.0%
 T-DIPOLE    0.0275        C  2 --  C  3          +10.7% (203.3%)     0.0%
 TRAVEL      0.0678        C  1 --  C  2           +8.0% (175.7%)     0.1%
 RED. MASS   0.9573        C  6 --  H 16           +7.8% (173.9%)    54.2%
 EFF. MASS  57.9018

 VIBRATION    4    4A       ATOM PAIR        ENERGY CONTRIBUTION    RADIAL
 FREQ.       392.11        C  1 --  C  3          +13.3% (151.9%)     0.0%
 T-DIPOLE    0.0861        C  1 --  C  2          +12.8% (149.0%)     0.0%
 TRAVEL      0.0881        C  1 --  C  5          +11.1% (138.3%)     0.5%
 RED. MASS   0.8414        C  1 --  C  4          +10.6% (135.3%)     1.1%
 EFF. MASS  22.1562

 VIBRATION    5    5A       ATOM PAIR        ENERGY CONTRIBUTION    RADIAL
 FREQ.       464.27        C  6 --  H 16          +14.5% (148.9%)     2.6%
 T-DIPOLE    0.0549        C  1 --  C  5          +14.2% (147.3%)     0.6%
 TRAVEL      0.0818        C  5 --  C  6          +11.0% (129.8%)     0.5%
 RED. MASS   1.4392        C  6 --  H 15          +11.0% (129.5%)    41.0%
 EFF. MASS  21.7032

 VIBRATION    6    6A       ATOM PAIR        ENERGY CONTRIBUTION    RADIAL
 FREQ.       642.05        C  6 --  H 15          +19.5% ( 77.7%)     0.2%
 T-DIPOLE    0.1777        C  5 --  C  6          +10.3% ( 56.5%)     0.0%
 TRAVEL      0.1352        C  5 --  H 14           +9.8% ( 55.1%)     4.9%
 RED. MASS   0.9834        C  1 --  C  5           +9.7% ( 54.7%)     1.9%
 EFF. MASS   5.7478

 VIBRATION    7    7A       ATOM PAIR        ENERGY CONTRIBUTION    RADIAL
 FREQ.       764.30        C  1 --  C  4          +12.0% ( 88.5%)    88.8%
 T-DIPOLE    0.0934        C  1 --  C  2           +9.1% ( 77.1%)     0.6%
 TRAVEL      0.0879        C  2 --  C  3           +9.1% ( 77.1%)   100.0%
 RED. MASS   0.9148        C  1 --  C  3           +9.0% ( 76.9%)     0.9%
 EFF. MASS  11.4218

[...]
 T-DIPOLE    0.0396        C  5 --  H 14           +8.6% ( 36.6%)     9.5%
 TRAVEL      0.1290        C  1 --  C  5           +7.9% ( 35.1%)    30.1%
 RED. MASS   0.3187        C  1 --  C  4           +6.9% ( 32.9%)     3.0%
 EFF. MASS   3.5770

 VIBRATION   21   21A       ATOM PAIR        ENERGY CONTRIBUTION    RADIAL
 FREQ.      1169.76        C  1 --  H  7          +26.0% ( 71.5%)     1.0%
 T-DIPOLE    0.0804        C  1 --  C  3          +10.1% ( 44.4%)    83.2%
 TRAVEL      0.1096        C  1 --  C  2           +6.5% ( 35.8%)    26.3%
 RED. MASS   0.5229        C  1 --  C  5           +6.0% ( 34.4%)     8.3%
 EFF. MASS   4.7994

 VIBRATION   22   22A       ATOM PAIR        ENERGY CONTRIBUTION    RADIAL
 FREQ.      1187.34        C  1 --  C  2          +12.5% ( 62.2%)    68.2%
 T-DIPOLE    0.0550        C  1 --  C  4          +10.2% ( 56.3%)    69.3%
 TRAVEL      0.0784        C  1 --  C  3           +9.5% ( 54.3%)    16.7%
 RED. MASS   1.1328        C  3 --  C  4           +8.7% ( 52.1%)    86.7%
 EFF. MASS   9.2441

 VIBRATION   23   23A       ATOM PAIR        ENERGY CONTRIBUTION    RADIAL
 FREQ.      1207.83        C  5 --  H 14          +36.8% ( 75.8%)     1.7%
 T-DIPOLE    0.0265        C  5 --  C  6           +7.1% ( 33.3%)     4.8%
 TRAVEL      0.1241        C  2 --  C  4           +5.4% ( 29.1%)    97.8%
 RED. MASS   0.4430        C  2 --  H 12           +4.7% ( 27.1%)     2.5%
 EFF. MASS   3.6267

 VIBRATION   24   24A       ATOM PAIR        ENERGY CONTRIBUTION    RADIAL
 FREQ.      1248.27        C  3 --  H 10          +12.4% ( 44.1%)     0.7%
 T-DIPOLE    0.0185        C  2 --  H 11          +11.3% ( 42.1%)     0.4%
 TRAVEL      0.1252        C  1 --  H  7          +11.0% ( 41.4%)     0.4%
 RED. MASS   0.4532        C  3 --  H 13          +10.9% ( 41.3%)     0.0%
 EFF. MASS   3.4445

 VIBRATION   25   25A       ATOM PAIR        ENERGY CONTRIBUTION    RADIAL
 FREQ.      1278.09        C  2 --  C  4          +13.3% ( 51.6%)    98.3%
 T-DIPOLE    0.0144        C  4 --  H  9          +10.8% ( 46.5%)     1.3%
 TRAVEL      0.0964        C  4 --  H  8          +10.7% ( 46.2%)     1.8%
 RED. MASS   0.7805        C  3 --  C  4           +8.6% ( 41.6%)     1.3%
 EFF. MASS   5.6830

 VIBRATION   26   26A       ATOM PAIR        ENERGY CONTRIBUTION    RADIAL
 FREQ.      1280.42        C  3 --  C  4          +12.7% ( 51.4%)    95.1%
 T-DIPOLE    0.0315        C  4 --  H  9          +11.7% ( 49.5%)     0.8%
 TRAVEL      0.0935        C  4 --  H  8          +11.7% ( 49.3%)     1.2%
 RED. MASS   0.8891        C  2 --  C  4           +8.7% ( 42.5%)     0.0%
 EFF. MASS   6.0285

 VIBRATION   27   27A       ATOM PAIR        ENERGY CONTRIBUTION    RADIAL
 FREQ.      1309.60        C  6 --  H 15          +22.8% ( 52.7%)     0.6%
 T-DIPOLE    0.0467        C  6 --  H 16          +22.7% ( 52.6%)     0.5%
 TRAVEL      0.1377        C  1 --  C  5           +7.9% ( 30.9%)    27.8%
 RED. MASS   0.3843        C  1 --  C  2           +7.0% ( 29.1%)    42.0%
 EFF. MASS   2.7151

 VIBRATION   28   28A       ATOM PAIR        ENERGY CONTRIBUTION    RADIAL
 FREQ.      1407.63        C  1 --  C  5          +15.6% ( 55.3%)    97.3%
 T-DIPOLE    0.0346        C  1 --  C  3          +11.1% ( 46.6%)    48.3%
 TRAVEL      0.0907        C  1 --  H  7          +10.8% ( 46.1%)     0.3%
 RED. MASS   0.9365        C  1 --  C  2          +10.7% ( 45.7%)    39.6%
 EFF. MASS   5.8272

 VIBRATION   29   29A       ATOM PAIR        ENERGY CONTRIBUTION    RADIAL
 FREQ.      1411.24        C  3 --  H 10          +20.7% ( 55.0%)     2.6%
 T-DIPOLE    0.0353        C  3 --  H 13          +18.1% ( 51.4%)     4.7%
 TRAVEL      0.1124        C  1 --  C  5           +9.9% ( 38.0%)    98.6%
 RED. MASS   0.4777        C  1 --  C  3           +9.4% ( 37.1%)     0.0%
 EFF. MASS   3.7842

 VIBRATION   30   30A       ATOM PAIR        ENERGY CONTRIBUTION    RADIAL
 FREQ.      1413.06        C  2 --  H 12          +25.9% ( 55.3%)     3.1%
 T-DIPOLE    0.0121        C  2 --  H 11          +24.0% ( 53.4%)     4.3%
 TRAVEL      0.1337        C  1 --  C  2           +6.9% ( 28.6%)     9.1%
 RED. MASS   0.3453        C  2 --  C  4           +6.3% ( 27.3%)    14.9%
 EFF. MASS   2.6693

 VIBRATION   31   31A       ATOM PAIR        ENERGY CONTRIBUTION    RADIAL
 FREQ.      1455.31        C  1 --  C  4           +9.7% ( 43.1%)    92.8%
 T-DIPOLE    0.0386        C  1 --  C  2           +8.5% ( 40.4%)    81.1%
 TRAVEL      0.0905        C  4 --  H  9           +8.2% ( 39.7%)     5.8%
 RED. MASS   0.5535        C  1 --  C  3           +7.9% ( 39.0%)    78.2%
 EFF. MASS   5.6634

 VIBRATION   32   32A       ATOM PAIR        ENERGY CONTRIBUTION    RADIAL
 FREQ.      1860.12        C  5 --  C  6          +44.8% ( 99.1%)    98.8%
 T-DIPOLE    0.1708        C  1 --  C  5          +16.9% ( 60.9%)    55.1%
 TRAVEL      0.0554        C  5 --  H 14          +15.4% ( 58.0%)     3.7%
 RED. MASS   5.2905        C  6 --  H 16          +10.8% ( 48.7%)    10.5%
 EFF. MASS  11.8150        C  6 --  H 15          +10.6% ( 48.2%)    13.0%

 VIBRATION   33   33A       ATOM PAIR        ENERGY CONTRIBUTION    RADIAL
 FREQ.      2946.88        C  1 --  H  7          +95.0% ( 99.6%)   100.0%
 T-DIPOLE    0.0976        C  1 --  C  2           +1.0% ( 10.5%)    13.5%
 TRAVEL      0.1257        C  1 --  C  3           +1.0% ( 10.4%)    13.4%
 RED. MASS   0.9157        C  1 --  C  5           +1.0% ( 10.4%)    10.6%
 EFF. MASS   1.4472

 VIBRATION   34   34A       ATOM PAIR        ENERGY CONTRIBUTION    RADIAL
 FREQ.      3028.29        C  2 --  H 11          +24.1% ( 51.3%)    97.5%
 T-DIPOLE    0.0451        C  4 --  H  9          +21.9% ( 49.0%)    96.6%
 TRAVEL      0.1195        C  4 --  H  8          +21.5% ( 48.5%)    96.5%
 RED. MASS   0.2106        C  2 --  H 12          +17.8% ( 44.1%)    95.6%
 EFF. MASS   1.5601

 VIBRATION   35   35A       ATOM PAIR        ENERGY CONTRIBUTION    RADIAL
 FREQ.      3036.87        C  3 --  H 13          +20.6% ( 47.1%)    97.0%
 T-DIPOLE    0.1365        C  5 --  H 14          +20.2% ( 46.6%)   100.0%
 TRAVEL      0.1202        C  3 --  H 10          +18.6% ( 44.7%)    96.4%
 RED. MASS   0.1787        C  2 --  H 11          +17.5% ( 43.4%)    97.9%
 EFF. MASS   1.5374        C  2 --  H 12          +11.6% ( 35.3%)    95.5%

 VIBRATION   36   36A       ATOM PAIR        ENERGY CONTRIBUTION    RADIAL
 FREQ.      3038.37        C  5 --  H 14          +73.4% ( 87.4%)   100.0%
 T-DIPOLE    0.2160        C  3 --  H 13           +6.1% ( 25.1%)    97.2%
 TRAVEL      0.1213        C  2 --  H 11           +5.8% ( 24.7%)    96.9%
 RED. MASS   0.5567        C  2 --  H 12           +5.5% ( 23.9%)    96.7%
 EFF. MASS   1.5074

 VIBRATION   37   37A       ATOM PAIR        ENERGY CONTRIBUTION    RADIAL
 FREQ.      3049.62        C  4 --  H  9          +22.8% ( 49.5%)    97.1%
 T-DIPOLE    0.1026        C  4 --  H  8          +22.3% ( 49.0%)    96.9%
 TRAVEL      0.1202        C  3 --  H 13          +19.5% ( 45.8%)    97.3%
 RED. MASS   0.1992        C  3 --  H 10          +17.1% ( 42.9%)    96.6%
 EFF. MASS   1.5298

 VIBRATION   38   38A       ATOM PAIR        ENERGY CONTRIBUTION    RADIAL
 FREQ.      3103.45        C  2 --  H 12          +51.5% ( 71.1%)    98.2%
 T-DIPOLE    0.0840        C  2 --  H 11          +36.2% ( 59.7%)    95.9%
 TRAVEL      0.1307        C  3 --  H 10           +4.8% ( 21.6%)    97.9%
 RED. MASS   0.4019        C  3 --  H 13           +4.3% ( 20.6%)    97.4%
 EFF. MASS   1.2722

 VIBRATION   39   39A       ATOM PAIR        ENERGY CONTRIBUTION    RADIAL
 FREQ.      3107.21        C  3 --  H 10          +29.2% ( 53.6%)    97.5%
 T-DIPOLE    0.0594        C  3 --  H 13          +25.8% ( 50.3%)    96.7%
 TRAVEL      0.1300        C  4 --  H  8          +20.6% ( 45.0%)    97.3%
 RED. MASS   0.2353        C  4 --  H  9          +19.6% ( 43.9%)    97.1%
 EFF. MASS   1.2845

 VIBRATION   40   40A       ATOM PAIR        ENERGY CONTRIBUTION    RADIAL
 FREQ.      3109.25        C  4 --  H  8          +28.2% ( 52.7%)    97.3%
 T-DIPOLE    0.0592        C  4 --  H  9          +28.2% ( 52.7%)    97.2%
 TRAVEL      0.1293        C  3 --  H 10          +18.0% ( 42.1%)    97.5%
 RED. MASS   0.2227        C  3 --  H 13          +15.8% ( 39.4%)    96.7%
 EFF. MASS   1.2963

 VIBRATION   41   41A       ATOM PAIR        ENERGY CONTRIBUTION    RADIAL
 FREQ.      3139.85        C  6 --  H 16          +90.4% ( 96.9%)    99.8%
 T-DIPOLE    0.1948        C  6 --  H 15           +8.2% ( 29.2%)    75.4%
 TRAVEL      0.1180        C  5 --  C  6           +1.3% ( 11.6%)    19.5%
 RED. MASS   0.8338
 EFF. MASS   1.5430

 VIBRATION   42   42A       ATOM PAIR        ENERGY CONTRIBUTION    RADIAL
 FREQ.      3148.38        C  6 --  H 15          +90.5% ( 95.7%)    99.6%
 T-DIPOLE    0.2536        C  6 --  H 16           +7.1% ( 26.9%)    49.4%
 TRAVEL      0.1212        C  5 --  C  6           +1.6% ( 12.7%)    75.8%
 RED. MASS   0.7978        C  5 --  H 14           +0.7% (  8.4%)    94.3%
 EFF. MASS   1.4587

 SYMMETRY NUMBER FOR POINT-GROUP C1  =  1


          SYSTEM IS A GROUND STATE


    NULL



          MOLECULE IS NOT LINEAR

          THERE ARE 42 GENUINE VIBRATIONS IN THIS SYSTEM
          THIS THERMODYNAMICS CALCULATION IS LIMITED TO
          MOLECULES WHICH HAVE NO INTERNAL ROTATIONS




                    CALCULATED THERMODYNAMIC PROPERTIES
                                          *
   TEMP. (K)   PARTITION FUNCTION   H.O.F.    ENTHALPY  HEAT CAPACITY ENTROPY
                                   KCAL/MOL   CAL/MOLE    CAL/K/MOL  CAL/K/MOL


 298.00  VIB.     0.1481D+02                  2099.0451    16.8538    12.3997
         ROT.     0.1334D+06                   888.2813     2.9808    26.4321
         INT.     0.1975D+07                  2987.3264    19.8346    38.8317
         TRA.     0.7198D+27                  1480.4688     4.9680    39.1295
         TOT.                       15.200    4467.7953    24.8026    77.9612

 200.00  VIB.     0.4939D+01                   844.9201     9.1614     7.3983
         ROT.     0.7335D+05                   596.1620     2.9808    25.2434
         INT.     0.3622D+06                  1441.0821    12.1422    32.6417
         TRA.     0.3957D+27                   993.6033     4.9680    37.1484
         TOT.                       13.167    2434.6853    17.1102    69.7901

 210.00  VIB.     0.5495D+01                   939.7668     9.8141     7.8609
         ROT.     0.7892D+05                   625.9700     2.9808    25.3888
         INT.     0.4336D+06                  1565.7368    12.7949    33.2498
         TRA.     0.4258D+27                  1043.2834     4.9680    37.3907
         TOT.                       13.341    2609.0202    17.7629    70.6405

 220.00  VIB.     0.6120D+01                  1041.3240    10.5033     8.3333
         ROT.     0.8462D+05                   655.7781     2.9808    25.5275
         INT.     0.5179D+06                  1697.1021    13.4841    33.8608
         TRA.     0.4566D+27                  1092.9636     4.9680    37.6219
         TOT.                       13.522    2790.0657    18.4521    71.4826

 230.00  VIB.     0.6824D+01                  1149.9495    11.2274     8.8160
         ROT.     0.9045D+05                   685.5862     2.9808    25.6600
         INT.     0.6172D+06                  1835.5357    14.2082    34.4760
         TRA.     0.4880D+27                  1142.6437     4.9680    37.8427
         TOT.                       13.710    2978.1795    19.1763    72.3187

 240.00  VIB.     0.7617D+01                  1265.9814    11.9842     9.3097
         ROT.     0.9642D+05                   715.3943     2.9808    25.7869
         INT.     0.7344D+06                  1981.3758    14.9650    35.0966
         TRA.     0.5202D+27                  1192.3239     4.9680    38.0541
         TOT.                       13.906    3173.6997    19.9330    73.1507

 250.00  VIB.     0.8513D+01                  1389.7320    12.7706     9.8148
         ROT.     0.1025D+06                   745.2024     2.9808    25.9085
         INT.     0.8727D+06                  2134.9344    15.7515    35.7233
         TRA.     0.5531D+27                  1242.0041     4.9680    38.2569
         TOT.                       14.109    3376.9385    20.7195    73.9803

 260.00  VIB.     0.9528D+01                  1521.4829    13.5837    10.3314
         ROT.     0.1087D+06                   775.0105     2.9808    26.0255
         INT.     0.1036D+07                  2296.4934    16.5645    36.3569
         TRA.     0.5866D+27                  1291.6842     4.9680    38.4518
         TOT.                       14.320    3588.1776    21.5325    74.8086

 270.00  VIB.     0.1068D+02                  1661.4825    14.4198    10.8597
         ROT.     0.1150D+06                   804.8186     2.9808    26.1380
         INT.     0.1228D+07                  2466.3011    17.4006    36.9976
         TRA.     0.6208D+27                  1341.3644     4.9680    38.6393
         TOT.                       14.540    3807.6655    22.3686    75.6369

 280.00  VIB.     0.1198D+02                  1809.9443    15.2755    11.3995
         ROT.     0.1215D+06                   834.6267     2.9808    26.2464
         INT.     0.1456D+07                  2644.5710    18.2563    37.6459
         TRA.     0.6556D+27                  1391.0445     4.9680    38.8200
         TOT.                       14.768    4035.6155    23.2243    76.4658

 290.00  VIB.     0.1347D+02                  1967.0459    16.1472    11.9507
         ROT.     0.1281D+06                   864.4348     2.9808    26.3510
         INT.     0.1725D+07                  2831.4808    19.1280    38.3017
         TRA.     0.6910D+27                  1440.7247     4.9680    38.9943
         TOT.                       15.004    4272.2055    24.0960    77.2959

 300.00  VIB.     0.1517D+02                  2132.9303    17.0315    12.5130
         ROT.     0.1347D+06                   894.2429     2.9808    26.4520
         INT.     0.2043D+07                  3027.1732    20.0123    38.9650
         TRA.     0.7270D+27                  1490.4049     4.9680    39.1627
         TOT.                       15.250    4517.5781    24.9803    78.1277

 310.00  VIB.     0.1710D+02                  2307.7062    17.9250    13.0860
         ROT.     0.1415D+06                   924.0510     2.9808    26.5498
         INT.     0.2420D+07                  3231.7572    20.9058    39.6357
         TRA.     0.7637D+27                  1540.0850     4.9680    39.3256
         TOT.                       15.504    4771.8423    25.8738    78.9614

 320.00  VIB.     0.1931D+02                  2491.4502    18.8246    13.6693
         ROT.     0.1484D+06                   953.8591     2.9808    26.6444
         INT.     0.2867D+07                  3445.3093    21.8054    40.3137
         TRA.     0.8009D+27                  1589.7652     4.9680    39.4834
         TOT.                       15.767    5035.0745    26.7734    79.7970

 330.00  VIB.     0.2184D+02                  2684.2086    19.7274    14.2624
         ROT.     0.1555D+06                   983.6672     2.9808    26.7361
         INT.     0.3396D+07                  3667.8759    22.7082    40.9985
         TRA.     0.8388D+27                  1639.4454     4.9680    39.6362
         TOT.                       16.039    5307.3212    27.6762    80.6347

 340.00  VIB.     0.2475D+02                  2886.0002    20.6308    14.8647
         ROT.     0.1626D+06                  1013.4753     2.9808    26.8251
         INT.     0.4023D+07                  3899.4755    23.6116    41.6898
         TRA.     0.8772D+27                  1689.1255     4.9680    39.7845
         TOT.                       16.321    5588.6010    28.5796    81.4743

 350.00  VIB.     0.2808D+02                  3096.8181    21.5323    15.4757
         ROT.     0.1698D+06                  1043.2834     2.9808    26.9115
         INT.     0.4769D+07                  4140.1015    24.5131    42.3873
         TRA.     0.9162D+27                  1738.8057     4.9680    39.9285
         TOT.                       16.611    5878.9072    29.4811    82.3158

 360.00  VIB.     0.3192D+02                  3316.6328    22.4298    16.0949
         ROT.     0.1771D+06                  1073.0915     2.9808    26.9955
         INT.     0.5654D+07                  4389.7243    25.4106    43.0904
         TRA.     0.9557D+27                  1788.4859     4.9680    40.0685
         TOT.                       16.910    6178.2102    30.3786    83.1589

 370.00  VIB.     0.3633D+02                  3545.3945    23.3214    16.7217
         ROT.     0.1846D+06                  1102.8996     2.9808    27.0771
         INT.     0.6706D+07                  4648.2941    26.3022    43.7988
         TRA.     0.9958D+27                  1838.1660     4.9680    40.2046
         TOT.                       17.219    6486.4601    31.2702    84.0034

 380.00  VIB.     0.4142D+02                  3783.0356    24.2054    17.3553
         ROT.     0.1921D+06                  1132.7077     2.9808    27.1566
         INT.     0.7957D+07                  4915.7433    27.1862    44.5120
         TRA.     0.1036D+28                  1887.8462     4.9680    40.3371
         TOT.                       17.536    6803.5894    32.1542    84.8491

 390.00  VIB.     0.4729D+02                  4029.4729    25.0804    17.9954
         ROT.     0.1997D+06                  1162.5158     2.9808    27.2341
         INT.     0.9446D+07                  5191.9887    28.0612    45.2295
         TRA.     0.1078D+28                  1937.5263     4.9680    40.4662
         TOT.                       17.862    7129.5150    33.0293    85.6957

 400.00  VIB.     0.5408D+02                  4284.6101    25.9452    18.6413
         ROT.     0.2075D+06                  1192.3239     2.9808    27.3095
         INT.     0.1122D+08                  5476.9340    28.9260    45.9509
         TRA.     0.1119D+28                  1987.2065     4.9680    40.5919
         TOT.                       18.196    7464.1405    33.8940    86.5428

   *: NOTE: HEATS OF FORMATION ARE RELATIVE TO THE
            ELEMENTS IN THEIR STANDARD STATE AT 298K
              (=  Standard Enthalpy of Formation).

            Hvib:  Zero-point energy is not included.
                   frequencies of less than zero cm-1 are not included.
            Hrot = (3/2)RT
            Htra = (3/2)RT + pV = (5/2)RT

            Heat capacity is Cp, not Cv

           For more information, see: HTTP://OpenMOPAC.net/Manual/thermochemistry.html


           FORCE CONSTANT IN CARTESIAN COORDINATES (Millidynes/A)

    ATOM   CHEMICAL       X               Y               Z
   NUMBER   SYMBOL  FORCE CONSTANT  FORCE CONSTANT  FORCE CONSTANT

      1       C        8.415404        7.794618        9.001236
      2       C        7.805854        8.080374        8.594938
      3       C        8.066813        7.744300        8.577631
      4       C        8.083857        8.033021        8.539552
      5       C       15.282489        4.406079        7.602760
      6       C       15.185842        3.887572        7.440746
      7       H        1.343963        1.317666        3.508287
      8       H        1.519628        1.501678        3.611509
      9       H        1.428642        1.412324        3.788775
     10       H        1.509391        1.466543        3.660727
     11       H        1.490500        1.414223        3.707260
     12       H        1.448084        1.522479        3.667231
     13       H        1.407698        1.470616        3.742734
     14       H        2.338121        1.383872        2.480875
     15       H        1.561156        1.283388        3.641264
     16       H        2.593101        1.396033        2.470835



 TOTAL CPU TIME:             0.91 SECONDS

 == MOPAC DONE ==
