 *******************************************************************************
 ** Site#: 14399           For non-commercial use only        Version 13.159M **
 *******************************************************************************
 ** Cite this work as: MOPAC2012, James J. P. Stewart, Stewart Computational  **
 ** Chemistry, Version 13.159M web: HTTP://OpenMOPAC.net  Days remaining:   6 **
 *******************************************************************************
 **                                                                           **
 **                                MOPAC2012                                  **
 **                                                                           **
 *******************************************************************************

                            PM3 CALCULATION RESULTS


 *******************************************************************************
 *  CALCULATION DONE:                                Mon Jun  2 11:08:44 2014  *
 *  PM3      - The PM3 Hamiltonian to be used
 *  PRECISE  - CRITERIA TO BE INCREASED BY 100 TIMES
 *  NOSYM    - POINT-GROUP SYMMETRY SET TO C1
 *  T=       - A TIME OF 172800.0 SECONDS REQUESTED
 *  DUMP=N   - RESTART FILE WRITTEN EVERY  7200.000 SECONDS
 *******************************************************************************
pm3  precise nosym
 InChI=1S/C5H8/c1-4-3-5(4)2/h3-4H,1-2H3

   ATOM   CHEMICAL          X               Y               Z
  NUMBER   SYMBOL      (ANGSTROMS)     (ANGSTROMS)     (ANGSTROMS)
 
     1       C          0.46200000  *   0.43020000  *   0.16380000  *
     2       C          1.88610000  *  -0.07910000  *  -0.01990000  *
     3       C         -1.80680000  *   0.28070000  *  -0.94860000  *
     4       C         -0.57090000  *  -0.33270000  *  -0.36830000  *
     5       C         -0.51230000  *  -0.72060000  *   0.83580000  *
     6       H          0.26830000  *   1.40760000  *   0.66140000  *
     7       H          2.49230000  *   0.72270000  *  -0.49740000  *
     8       H          2.33570000  *  -0.30610000  *   0.97300000  *
     9       H          1.95740000  *  -0.98710000  *  -0.66330000  *
    10       H         -2.57440000  *  -0.50840000  *  -1.11560000  *
    11       H         -2.23910000  *   1.06960000  *  -0.28960000  *
    12       H         -1.56090000  *   0.73840000  *  -1.93300000  *
    13       H         -0.13730000  *  -1.71520000  *   1.06880000  *
 


          CARTESIAN COORDINATES 

    NO.       ATOM         X         Y         Z

     1         C        0.4620    0.4302    0.1638
     2         C        1.8861   -0.0791   -0.0199
     3         C       -1.8068    0.2807   -0.9486
     4         C       -0.5709   -0.3327   -0.3683
     5         C       -0.5123   -0.7206    0.8358
     6         H        0.2683    1.4076    0.6614
     7         H        2.4923    0.7227   -0.4974
     8         H        2.3357   -0.3061    0.9730
     9         H        1.9574   -0.9871   -0.6633
    10         H       -2.5744   -0.5084   -1.1156
    11         H       -2.2391    1.0696   -0.2896
    12         H       -1.5609    0.7384   -1.9330
    13         H       -0.1373   -1.7152    1.0688

  H: (PM3): J. J. P. STEWART, J. COMP. CHEM. 10, 209 (1989).
  C: (PM3): J. J. P. STEWART, J. COMP. CHEM. 10, 209 (1989).

           Empirical Formula: C5 H8  =    13 atoms



      MOLECULAR POINT GROUP   :   C1  


      RHF CALCULATION, NO. OF DOUBLY OCCUPIED LEVELS =   14

      Geometry optimization using EF

          DIAGONAL MATRIX USED AS START HESSIAN

 CYCLE:     1 TIME:   0.003 TIME LEFT:  2.00D  GRAD.:   327.314 HEAT: 124.0448
 CYCLE:     2 TIME:   0.002 TIME LEFT:  2.00D  GRAD.:   372.904 HEAT: 118.5702
 CYCLE:     3 TIME:   0.003 TIME LEFT:  2.00D  GRAD.:   148.289 HEAT: 82.72543
 CYCLE:     4 TIME:   0.005 TIME LEFT:  2.00D  GRAD.:   166.975 HEAT: 73.58608
 CYCLE:     5 TIME:   0.002 TIME LEFT:  2.00D  GRAD.:   136.506 HEAT: 68.31848
 CYCLE:     6 TIME:   0.004 TIME LEFT:  2.00D  GRAD.:    99.060 HEAT: 64.73608
 CYCLE:     7 TIME:   0.002 TIME LEFT:  2.00D  GRAD.:    60.418 HEAT: 61.75286
 CYCLE:     8 TIME:   0.002 TIME LEFT:  2.00D  GRAD.:   108.713 HEAT: 61.32686
 CYCLE:     9 TIME:   0.002 TIME LEFT:  2.00D  GRAD.:    67.814 HEAT: 58.84151
 CYCLE:    10 TIME:   0.002 TIME LEFT:  2.00D  GRAD.:    90.727 HEAT: 58.32022
 CYCLE:    11 TIME:   0.003 TIME LEFT:  2.00D  GRAD.:    42.331 HEAT: 56.30957
 CYCLE:    12 TIME:   0.004 TIME LEFT:  2.00D  GRAD.:    71.475 HEAT: 56.28525
 CYCLE:    13 TIME:   0.004 TIME LEFT:  2.00D  GRAD.:    23.552 HEAT: 54.60737
 CYCLE:    14 TIME:   0.002 TIME LEFT:  2.00D  GRAD.:    42.108 HEAT: 54.05229
 CYCLE:    15 TIME:   0.002 TIME LEFT:  2.00D  GRAD.:    31.404 HEAT: 52.93647
 CYCLE:    16 TIME:   0.002 TIME LEFT:  2.00D  GRAD.:    23.635 HEAT: 51.90505
 CYCLE:    17 TIME:   0.002 TIME LEFT:  2.00D  GRAD.:    30.618 HEAT: 51.55866
 CYCLE:    18 TIME:   0.002 TIME LEFT:  2.00D  GRAD.:    22.491 HEAT: 51.09879
 CYCLE:    19 TIME:   0.002 TIME LEFT:  2.00D  GRAD.:    18.635 HEAT: 50.89885
 CYCLE:    20 TIME:   0.002 TIME LEFT:  2.00D  GRAD.:    14.732 HEAT: 50.73711
 CYCLE:    21 TIME:   0.002 TIME LEFT:  2.00D  GRAD.:    10.774 HEAT: 50.57812
 CYCLE:    22 TIME:   0.002 TIME LEFT:  2.00D  GRAD.:     9.189 HEAT: 50.43319
 CYCLE:    23 TIME:   0.002 TIME LEFT:  2.00D  GRAD.:    11.607 HEAT: 50.21555
 CYCLE:    24 TIME:   0.002 TIME LEFT:  2.00D  GRAD.:     9.293 HEAT: 50.06717
 CYCLE:    25 TIME:   0.002 TIME LEFT:  2.00D  GRAD.:     7.376 HEAT: 49.95107
 CYCLE:    26 TIME:   0.002 TIME LEFT:  2.00D  GRAD.:     7.316 HEAT: 49.86504
 CYCLE:    27 TIME:   0.002 TIME LEFT:  2.00D  GRAD.:     7.994 HEAT: 49.79059
 CYCLE:    28 TIME:   0.002 TIME LEFT:  2.00D  GRAD.:     5.520 HEAT: 49.72720
 CYCLE:    29 TIME:   0.002 TIME LEFT:  2.00D  GRAD.:     4.965 HEAT: 49.66086
 CYCLE:    30 TIME:   0.002 TIME LEFT:  2.00D  GRAD.:     3.951 HEAT: 49.61808
 CYCLE:    31 TIME:   0.002 TIME LEFT:  2.00D  GRAD.:     3.202 HEAT: 49.59552
 CYCLE:    32 TIME:   0.002 TIME LEFT:  2.00D  GRAD.:     2.866 HEAT: 49.57475
 CYCLE:    33 TIME:   0.002 TIME LEFT:  2.00D  GRAD.:     2.769 HEAT: 49.55677
 CYCLE:    34 TIME:   0.002 TIME LEFT:  2.00D  GRAD.:     2.305 HEAT: 49.54266
 CYCLE:    35 TIME:   0.002 TIME LEFT:  2.00D  GRAD.:     1.480 HEAT: 49.53503
 CYCLE:    36 TIME:   0.002 TIME LEFT:  2.00D  GRAD.:     1.030 HEAT: 49.53141
 CYCLE:    37 TIME:   0.002 TIME LEFT:  2.00D  GRAD.:     0.914 HEAT: 49.52916
 CYCLE:    38 TIME:   0.002 TIME LEFT:  2.00D  GRAD.:     0.871 HEAT: 49.52726
 CYCLE:    39 TIME:   0.002 TIME LEFT:  2.00D  GRAD.:     0.788 HEAT: 49.52570
 CYCLE:    40 TIME:   0.002 TIME LEFT:  2.00D  GRAD.:     0.722 HEAT: 49.52447
 CYCLE:    41 TIME:   0.002 TIME LEFT:  2.00D  GRAD.:     0.648 HEAT: 49.52349
 CYCLE:    42 TIME:   0.002 TIME LEFT:  2.00D  GRAD.:     0.641 HEAT: 49.52255
 CYCLE:    43 TIME:   0.002 TIME LEFT:  2.00D  GRAD.:     0.705 HEAT: 49.52156
 CYCLE:    44 TIME:   0.002 TIME LEFT:  2.00D  GRAD.:     0.845 HEAT: 49.52021
 CYCLE:    45 TIME:   0.002 TIME LEFT:  2.00D  GRAD.:     0.935 HEAT: 49.51854
 CYCLE:    46 TIME:   0.002 TIME LEFT:  2.00D  GRAD.:     1.040 HEAT: 49.51600
 CYCLE:    47 TIME:   0.002 TIME LEFT:  2.00D  GRAD.:     0.900 HEAT: 49.51465
 CYCLE:    48 TIME:   0.002 TIME LEFT:  2.00D  GRAD.:     1.389 HEAT: 49.51103
 CYCLE:    49 TIME:   0.002 TIME LEFT:  2.00D  GRAD.:     1.341 HEAT: 49.50892
 CYCLE:    50 TIME:   0.002 TIME LEFT:  2.00D  GRAD.:     4.816 HEAT: 49.50155
 CYCLE:    51 TIME:   0.002 TIME LEFT:  2.00D  GRAD.:     1.778 HEAT: 49.49402
 CYCLE:    52 TIME:   0.002 TIME LEFT:  2.00D  GRAD.:     0.751 HEAT: 49.48946
 CYCLE:    53 TIME:   0.002 TIME LEFT:  2.00D  GRAD.:     1.515 HEAT: 49.48756
 CYCLE:    54 TIME:   0.002 TIME LEFT:  2.00D  GRAD.:     1.015 HEAT: 49.48638
 CYCLE:    55 TIME:   0.002 TIME LEFT:  2.00D  GRAD.:     0.431 HEAT: 49.48465
 CYCLE:    56 TIME:   0.002 TIME LEFT:  2.00D  GRAD.:     0.235 HEAT: 49.48448
 CYCLE:    57 TIME:   0.002 TIME LEFT:  2.00D  GRAD.:     0.177 HEAT: 49.48439
 CYCLE:    58 TIME:   0.002 TIME LEFT:  2.00D  GRAD.:     0.192 HEAT: 49.48431
 CYCLE:    59 TIME:   0.002 TIME LEFT:  2.00D  GRAD.:     0.233 HEAT: 49.48419
 CYCLE:    60 TIME:   0.002 TIME LEFT:  2.00D  GRAD.:     0.281 HEAT: 49.48406
 CYCLE:    61 TIME:   0.002 TIME LEFT:  2.00D  GRAD.:     0.301 HEAT: 49.48389
 CYCLE:    62 TIME:   0.002 TIME LEFT:  2.00D  GRAD.:     0.354 HEAT: 49.48375
 CYCLE:    63 TIME:   0.002 TIME LEFT:  2.00D  GRAD.:     0.675 HEAT: 49.48325
 CYCLE:    64 TIME:   0.002 TIME LEFT:  2.00D  GRAD.:     0.730 HEAT: 49.48269
 CYCLE:    65 TIME:   0.002 TIME LEFT:  2.00D  GRAD.:     1.234 HEAT: 49.47950
 CYCLE:    66 TIME:   0.002 TIME LEFT:  2.00D  GRAD.:     1.079 HEAT: 49.47785
 CYCLE:    67 TIME:   0.002 TIME LEFT:  2.00D  GRAD.:     1.554 HEAT: 49.47537
 CYCLE:    68 TIME:   0.002 TIME LEFT:  2.00D  GRAD.:     0.713 HEAT: 49.47444
 CYCLE:    69 TIME:   0.002 TIME LEFT:  2.00D  GRAD.:     0.618 HEAT: 49.47294
 CYCLE:    70 TIME:   0.002 TIME LEFT:  2.00D  GRAD.:     0.976 HEAT: 49.47161
 CYCLE:    71 TIME:   0.002 TIME LEFT:  2.00D  GRAD.:     0.567 HEAT: 49.47072
 CYCLE:    72 TIME:   0.002 TIME LEFT:  2.00D  GRAD.:     0.219 HEAT: 49.47027
 CYCLE:    73 TIME:   0.002 TIME LEFT:  2.00D  GRAD.:     0.247 HEAT: 49.47017
 CYCLE:    74 TIME:   0.002 TIME LEFT:  2.00D  GRAD.:     0.336 HEAT: 49.47012
 CYCLE:    75 TIME:   0.002 TIME LEFT:  2.00D  GRAD.:     0.088 HEAT: 49.47003
 CYCLE:    76 TIME:   0.002 TIME LEFT:  2.00D  GRAD.:     0.106 HEAT: 49.47000
 CYCLE:    77 TIME:   0.002 TIME LEFT:  2.00D  GRAD.:     0.047 HEAT: 49.47000

     RMS GRADIENT =  0.04682  IS LESS THAN CUTOFF =  0.05000



 -------------------------------------------------------------------------------
pm3  precise nosym
 InChI=1S/C5H8/c1-4-3-5(4)2/h3-4H,1-2H3



     GEOMETRY OPTIMISED USING EIGENVECTOR FOLLOWING (EF).     
     SCF FIELD WAS ACHIEVED                                   


                              PM3 CALCULATION
                                                       MOPAC2012 (Version: 13.159M)
                                                       Mon Jun  2 11:08:44 2014
                                                       No. of days left =   6




          FINAL HEAT OF FORMATION =         49.47000 KCAL/MOL =     206.98246 KJ/MOL


          TOTAL ENERGY            =       -713.71829 EV
          ELECTRONIC ENERGY       =      -2747.26983 EV  POINT GROUP:     C1  
          CORE-CORE REPULSION     =       2033.55155 EV
          COSMO AREA              =        121.93 SQUARE ANGSTROMS
          COSMO VOLUME            =        107.55 CUBIC ANGSTROMS

          GRADIENT NORM           =          0.04682
          IONIZATION POTENTIAL    =          9.662041 EV
          HOMO LUMO ENERGIES (EV) =         -9.662  0.926
          NO. OF FILLED LEVELS    =         14
          MOLECULAR WEIGHT        =         68.118

          MOLECULAR DIMENSIONS (Angstroms)

            Atom       Atom       Distance
            H    10    H     8     5.48108
            H    13    H     7     3.92284
            H     9    H     6     3.03513


          SCF CALCULATIONS        =         80
          COMPUTATION TIME        =          0.184 SECONDS




   ATOM   CHEMICAL          X               Y               Z
  NUMBER   SYMBOL      (ANGSTROMS)     (ANGSTROMS)     (ANGSTROMS)
 
     1       C          0.51715607  *   0.25734440  *   0.52073653  *
     2       C          1.81434148  *   0.02602495  *  -0.19198024  *
     3       C         -1.73175431  *   0.27349197  *  -1.14093605  *
     4       C         -0.77774508  *  -0.10023170  *  -0.12123210  *
     5       C         -0.37729695  *  -0.88504160  *   0.85486733  *
     6       H          0.56232409  *   1.12959216  *   1.20205964  *
     7       H          2.09337306  *   0.90407170  *  -0.78844414  *
     8       H          2.62382044  *  -0.15925496  *   0.52573146  *
     9       H          1.77287143  *  -0.83467374  *  -0.87173718  *
    10       H         -2.58130236  *  -0.42001106  *  -1.17158745  *
    11       H         -2.11905762  *   1.28372977  *  -0.95161990  *
    12       H         -1.25415791  *   0.27621993  *  -2.12997845  *
    13       H         -0.50961747  *  -1.73431306  *   1.49697662  *

           Empirical Formula: C5 H8  =    13 atoms



      MOLECULAR POINT GROUP   :   C1  


                  EIGENVALUES  
 -39.04910 -30.67554 -27.64770 -20.19802 -18.53625 -16.51611 -15.46031 -14.78795
 -14.13374 -13.87058 -13.08224 -11.95757 -10.86251  -9.66204   0.92640   2.64007
   3.01392   3.40519   3.83519   4.13517   4.26596   4.41830   4.45899   4.54025
   4.81684   4.97707   5.22663   5.82811


              NET ATOMIC CHARGES AND DIPOLE CONTRIBUTIONS

  ATOM NO.   TYPE          CHARGE      No. of ELECS.   s-Pop       p-Pop       
    1          C          -0.054954        4.0550     1.15888     2.89607
    2          C          -0.103396        4.1034     1.13475     2.96865
    3          C          -0.000630        4.0006     1.10032     2.90031
    4          C          -0.162046        4.1620     1.21089     2.95116
    5          C          -0.183130        4.1831     1.21545     2.96768
    6          H           0.074613        0.9254     0.92539
    7          H           0.040212        0.9598     0.95979
    8          H           0.041089        0.9589     0.95891
    9          H           0.040675        0.9593     0.95933
   10          H           0.044896        0.9551     0.95510
   11          H           0.049667        0.9503     0.95033
   12          H           0.049986        0.9500     0.95001
   13          H           0.163019        0.8370     0.83698
 DIPOLE           X         Y         Z       TOTAL
 POINT-CHG.    -0.387     0.084    -0.303     0.499
 HYBRID         0.015    -0.125     0.009     0.126
 SUM           -0.373    -0.041    -0.295     0.477


          ATOMIC ORBITAL ELECTRON POPULATIONS

    Atom      s        px        py        pz   
    1  C   1.15888   0.89926   0.98210   1.01471
    2  C   1.13475   0.96614   1.00772   0.99479
    3  C   1.10032   0.95321   0.99841   0.94869
    4  C   1.21089   0.97070   1.01217   0.96829
    5  C   1.21545   1.00263   0.97709   0.98796
    6  H   0.92539
    7  H   0.95979
    8  H   0.95891
    9  H   0.95933
   10  H   0.95510
   11  H   0.95033
   12  H   0.95001
   13  H   0.83698
 *******************************************************************************
 ** Site#: 14399           For non-commercial use only        Version 13.159M **
 *******************************************************************************
 ** Cite this work as: MOPAC2012, James J. P. Stewart, Stewart Computational  **
 ** Chemistry, Version 13.159M web: HTTP://OpenMOPAC.net  Days remaining:   6 **
 *******************************************************************************
 **                                                                           **
 **                                MOPAC2012                                  **
 **                                                                           **
 *******************************************************************************

                            PM3 CALCULATION RESULTS


 *******************************************************************************
 *  CALCULATION DONE:                                Mon Jun  2 11:08:44 2014  *
 *  PM3      - The PM3 Hamiltonian to be used
 *  OLDGEO   - PREVIOUS GEOMETRY TO BE USED
 *  PRECISE  - CRITERIA TO BE INCREASED BY 100 TIMES
 *  NOSYM    - POINT-GROUP SYMMETRY SET TO C1
 *  T=       - A TIME OF 172800.0 SECONDS REQUESTED
 *  DUMP=N   - RESTART FILE WRITTEN EVERY  7200.000 SECONDS
 *  THERMO   - THERMODYNAMIC QUANTITIES TO BE CALCULATED
 *******************************************************************************
oldgeo thermo nosym precise  pm3

   ATOM   CHEMICAL          X               Y               Z
  NUMBER   SYMBOL      (ANGSTROMS)     (ANGSTROMS)     (ANGSTROMS)
 
     1       C          0.51715607  *   0.25734440  *   0.52073653  *
     2       C          1.81434148  *   0.02602495  *  -0.19198024  *
     3       C         -1.73175431  *   0.27349197  *  -1.14093605  *
     4       C         -0.77774508  *  -0.10023170  *  -0.12123210  *
     5       C         -0.37729695  *  -0.88504160  *   0.85486733  *
     6       H          0.56232409  *   1.12959216  *   1.20205964  *
     7       H          2.09337306  *   0.90407170  *  -0.78844414  *
     8       H          2.62382044  *  -0.15925496  *   0.52573146  *
     9       H          1.77287143  *  -0.83467374  *  -0.87173718  *
    10       H         -2.58130236  *  -0.42001106  *  -1.17158745  *
    11       H         -2.11905762  *   1.28372977  *  -0.95161990  *
    12       H         -1.25415791  *   0.27621993  *  -2.12997845  *
    13       H         -0.50961747  *  -1.73431306  *   1.49697662  *
 


          CARTESIAN COORDINATES 

    NO.       ATOM         X         Y         Z

     1         C        0.5172    0.2573    0.5207
     2         C        1.8143    0.0260   -0.1920
     3         C       -1.7318    0.2735   -1.1409
     4         C       -0.7777   -0.1002   -0.1212
     5         C       -0.3773   -0.8850    0.8549
     6         H        0.5623    1.1296    1.2021
     7         H        2.0934    0.9041   -0.7884
     8         H        2.6238   -0.1593    0.5257
     9         H        1.7729   -0.8347   -0.8717
    10         H       -2.5813   -0.4200   -1.1716
    11         H       -2.1191    1.2837   -0.9516
    12         H       -1.2542    0.2762   -2.1300
    13         H       -0.5096   -1.7343    1.4970

  H: (PM3): J. J. P. STEWART, J. COMP. CHEM. 10, 209 (1989).
  C: (PM3): J. J. P. STEWART, J. COMP. CHEM. 10, 209 (1989).

           Empirical Formula: C5 H8  =    13 atoms



      MOLECULAR POINT GROUP   :   C1  


      RHF CALCULATION, NO. OF DOUBLY OCCUPIED LEVELS =   14



          HEAT OF FORMATION =      49.469996 KCALS/MOLE


          INTERNAL COORDINATE DERIVATIVES

   NUMBER  ATOM       BOND         ANGLE      DIHEDRAL

     1       C      0.002117     0.003510    -0.002950
     2       C      0.013792    -0.002271     0.000160
     3       C     -0.001344    -0.006892    -0.004180
     4       C      0.001206    -0.001910     0.001979
     5       C     -0.002976    -0.000598     0.002207
     6       H     -0.003840     0.001558    -0.000182
     7       H      0.001305    -0.008583    -0.021248
     8       H     -0.001933     0.019949     0.005944
     9       H     -0.007264    -0.010495     0.015911
    10       H     -0.005539     0.003338    -0.011343
    11       H     -0.007076    -0.001834     0.009479
    12       H      0.012103     0.003510     0.004534
    13       H     -0.000551     0.000718    -0.000312


          GRADIENT NORM =   0.04693


          TIME FOR SCF CALCULATION =    0.00

          TIME FOR DERIVATIVES     =    0.00

          MOLECULAR WEIGHT =   68.12



          ROTATIONAL CONSTANTS IN CM(-1)

          A =    0.33051379   B =    0.12632984   C =    0.10285039



           PRINCIPAL MOMENTS OF INERTIA IN UNITS OF 10**(-40)*GRAM-CM**2

          A =       84.6947   B =      221.5848   C =      272.1699


          ORIENTATION OF MOLECULE IN FORCE CALCULATION

    NO.       ATOM         X         Y         Z

     1          C       0.2014   -0.8171    0.3094
     2          C       1.6995   -0.8171    0.3094
     3          C      -0.9579    1.7275    0.3094
     4          C      -0.5592    0.3977   -0.0935
     5          C      -0.5557   -0.5970   -0.9535
     6          H      -0.2183   -1.4877    1.0849
     7          H       2.0893   -0.4911    1.2822
     8          H       2.0876   -1.8256    0.1168
     9          H       2.1199   -0.1505   -0.4544
    10          H      -1.5718    2.2142   -0.4585
    11          H      -1.5393    1.6877    1.2405
    12          H      -0.0742    2.3538    0.4913
    13          H      -0.8446   -1.0364   -1.8887


    FIRST DERIVATIVES WILL BE USED IN THE CALCULATION OF SECOND DERIVATIVES

          ESTIMATED TIME TO COMPLETE CALCULATION =        0.48 SECONDS

    FOR POINT-GROUP C1   THERE ARE   1 UNIQUE SYMMETRY FUNCTIONS.

 STEP:   1 TIME =     0.01 SECS, INTEGRAL =      0.01 TIME LEFT: 172799.99
 STEP:   2 TIME =     0.01 SECS, INTEGRAL =      0.02 TIME LEFT: 172799.98
 STEP:   3 TIME =     0.01 SECS, INTEGRAL =      0.03 TIME LEFT: 172799.97
 STEP:   4 TIME =     0.01 SECS, INTEGRAL =      0.04 TIME LEFT: 172799.96
 STEP:   5 TIME =     0.01 SECS, INTEGRAL =      0.05 TIME LEFT: 172799.95
 STEP:   6 TIME =     0.01 SECS, INTEGRAL =      0.06 TIME LEFT: 172799.94
 STEP:   7 TIME =     0.01 SECS, INTEGRAL =      0.07 TIME LEFT: 172799.93
 STEP:   8 TIME =     0.01 SECS, INTEGRAL =      0.07 TIME LEFT: 172799.92
 STEP:   9 TIME =     0.01 SECS, INTEGRAL =      0.08 TIME LEFT: 172799.91
 STEP:  10 TIME =     0.01 SECS, INTEGRAL =      0.09 TIME LEFT: 172799.90
 STEP:  11 TIME =     0.01 SECS, INTEGRAL =      0.10 TIME LEFT: 172799.89
 STEP:  12 TIME =     0.01 SECS, INTEGRAL =      0.11 TIME LEFT: 172799.88
 STEP:  13 TIME =     0.01 SECS, INTEGRAL =      0.12 TIME LEFT: 172799.87
 STEP:  14 TIME =     0.01 SECS, INTEGRAL =      0.13 TIME LEFT: 172799.86
 STEP:  15 TIME =     0.01 SECS, INTEGRAL =      0.14 TIME LEFT: 172799.86
 STEP:  16 TIME =     0.01 SECS, INTEGRAL =      0.15 TIME LEFT: 172799.85
 STEP:  17 TIME =     0.01 SECS, INTEGRAL =      0.16 TIME LEFT: 172799.84
 STEP:  18 TIME =     0.01 SECS, INTEGRAL =      0.17 TIME LEFT: 172799.83
 STEP:  19 TIME =     0.01 SECS, INTEGRAL =      0.18 TIME LEFT: 172799.82
 STEP:  20 TIME =     0.01 SECS, INTEGRAL =      0.19 TIME LEFT: 172799.81
 STEP:  21 TIME =     0.01 SECS, INTEGRAL =      0.20 TIME LEFT: 172799.80
 STEP:  22 TIME =     0.01 SECS, INTEGRAL =      0.21 TIME LEFT: 172799.79
 STEP:  23 TIME =     0.01 SECS, INTEGRAL =      0.22 TIME LEFT: 172799.78
 STEP:  24 TIME =     0.01 SECS, INTEGRAL =      0.23 TIME LEFT: 172799.77
 STEP:  25 TIME =     0.01 SECS, INTEGRAL =      0.24 TIME LEFT: 172799.76
 STEP:  26 TIME =     0.01 SECS, INTEGRAL =      0.25 TIME LEFT: 172799.75
 STEP:  27 TIME =     0.01 SECS, INTEGRAL =      0.26 TIME LEFT: 172799.74
 STEP:  28 TIME =     0.01 SECS, INTEGRAL =      0.26 TIME LEFT: 172799.73
 STEP:  29 TIME =     0.01 SECS, INTEGRAL =      0.27 TIME LEFT: 172799.72
 STEP:  30 TIME =     0.01 SECS, INTEGRAL =      0.28 TIME LEFT: 172799.71
 STEP:  31 TIME =     0.01 SECS, INTEGRAL =      0.29 TIME LEFT: 172799.70
 STEP:  32 TIME =     0.01 SECS, INTEGRAL =      0.30 TIME LEFT: 172799.69
 STEP:  33 TIME =     0.01 SECS, INTEGRAL =      0.31 TIME LEFT: 172799.69
 STEP:  34 TIME =     0.01 SECS, INTEGRAL =      0.32 TIME LEFT: 172799.68
 STEP:  35 TIME =     0.01 SECS, INTEGRAL =      0.33 TIME LEFT: 172799.67
 STEP:  36 TIME =     0.01 SECS, INTEGRAL =      0.34 TIME LEFT: 172799.66
 STEP:  37 TIME =     0.01 SECS, INTEGRAL =      0.35 TIME LEFT: 172799.65
 STEP:  38 TIME =     0.01 SECS, INTEGRAL =      0.36 TIME LEFT: 172799.64
 STEP:  39 TIME =     0.01 SECS, INTEGRAL =      0.37 TIME LEFT: 172799.63

(To convert to Hartree/Bohr^2, multiply by (10^(-21) x N x a0^2)/(4.184 x 627.51) = 0.0642)


           FORCE MATRIX IN MILLIDYNES/ANGSTROM


                  C  1       C  2       C  3       C  4       C  5       H  6
 ------------------------------------------------------------------------------
     C    1  15.286864
     C    2   4.717119  14.537191
     C    3   0.308769   0.028447  15.066171
     C    4   5.250984   0.549680   6.283775  21.377487
     C    5   5.346678   0.550367   0.510268  12.155498  20.334270
     H    6   4.424280   0.421849   0.022956   0.435506   0.436535   4.986976
     H    7   0.442792   4.742237   0.003999   0.014257   0.047396   0.027376
     H    8   0.442041   4.743159   0.004424   0.046514   0.014290   0.027092
     H    9   0.476809   4.747562   0.002353   0.016642   0.015559   0.043249
     H   10   0.025828   0.003451   4.752336   0.468454   0.007284   0.002753
     H   11   0.010490   0.001088   4.699388   0.451117   0.035985   0.004311
     H   12   0.009994   0.004192   4.703000   0.450542   0.036276   0.001039
     H   13   0.286372   0.021399   0.029986   0.400043   5.561494   0.017650


                  H  7       H  8       H  9       H 10       H 11       H 12
 ------------------------------------------------------------------------------
     H    7   5.466801
     H    8   0.572856   5.465908
     H    9   0.571237   0.570048   5.480044
     H   10   0.000640   0.000841   0.000314   5.432111
     H   11   0.000324   0.000382   0.000353   0.548211   5.390413
     H   12   0.000871   0.000785   0.001075   0.549020   0.564240   5.392903
     H   13   0.003460   0.002775   0.002436   0.002680   0.002631   0.002522


                  H 13
 ------------------
     H   13   5.907383


          HEAT OF FORMATION =      49.469996 KCALS/MOLE

          ZERO POINT ENERGY      70.919 KCAL/MOL


           NORMAL COORDINATE ANALYSIS (Total motion = 1 Angstrom)


   Root No.       1         2         3         4         5         6         7         8

                 1 A       2 A       3 A       4 A       5 A       6 A       7 A       8 A   

                 112.6     143.6     201.1     338.4     409.0     494.8     787.3     842.3
  
           1    0.0044   -0.0029   -0.0179   -0.0023   -0.0324   -0.0304    0.0004    0.0003
           2    0.0024   -0.0048   -0.0234   -0.0439    0.0137   -0.0476   -0.0448   -0.0083
           3    0.0046   -0.0109   -0.0149    0.0027    0.0576    0.0174   -0.0185   -0.0042
           4    0.0046   -0.0030   -0.0178   -0.0003   -0.0351   -0.0359    0.0066    0.0133
           5    0.0061    0.0025    0.0659    0.0027    0.0077    0.0234   -0.0156   -0.0045
           6   -0.0153    0.0035    0.0178   -0.0171   -0.0379   -0.0120   -0.0077   -0.0034
           7    0.0023    0.0027    0.0642   -0.0040    0.0086    0.0018   -0.0204    0.0118
           8    0.0009   -0.0059   -0.0089    0.0156   -0.0049   -0.0113    0.0619    0.0126
           9   -0.0016    0.0171    0.0116   -0.0350    0.0108   -0.0060    0.0103   -0.0082
          10   -0.0013    0.0004   -0.0257   -0.0195   -0.0190    0.0984   -0.0138    0.0063
          11   -0.0016   -0.0004   -0.0289   -0.0248   -0.0042    0.0207    0.0230    0.0057
          12    0.0032   -0.0028   -0.0073    0.0780   -0.0142   -0.0055   -0.0182   -0.0085
          13   -0.0107    0.0028   -0.0209    0.0185    0.0677   -0.0012    0.0241   -0.0579
          14   -0.0090    0.0078   -0.0224    0.0373   -0.0126    0.0075   -0.0274   -0.0243
          15    0.0117   -0.0124   -0.0147    0.0065   -0.0047    0.0097    0.0233    0.0262
          16    0.0155   -0.0072   -0.0031    0.0146   -0.0375   -0.0495    0.0016    0.0268
          17    0.0081   -0.0075   -0.0469   -0.1177    0.0397   -0.0333   -0.1149    0.0430
          18    0.0153   -0.0156   -0.0283   -0.0537    0.0728    0.0152   -0.0794    0.0542
          19    0.0167   -0.0186   -0.0668    0.0048    0.0647   -0.0399   -0.0568   -0.0320
          20    0.0235    0.2658    0.0710    0.0300    0.0071    0.0594    0.0229    0.0047
          21   -0.0260   -0.0782    0.0361   -0.0286   -0.0797   -0.0227    0.0055    0.0134
          22    0.0046    0.0085    0.0568    0.0339   -0.0679    0.0462    0.1078    0.0519
          23    0.0039   -0.0451    0.0976    0.0150    0.0024    0.0601    0.0211    0.0070
          24   -0.0037    0.2781    0.0050   -0.0120   -0.0773   -0.0286    0.0085    0.0159
          25   -0.0074    0.0010   -0.0431   -0.0379   -0.1034   -0.1176   -0.0244    0.0327
          26   -0.0056   -0.1986    0.1140    0.0083   -0.0010    0.0668    0.0237    0.0087
          27   -0.0321   -0.1698    0.0456   -0.0336   -0.0851   -0.0216    0.0086    0.0194
          28    0.2246   -0.0078    0.0801    0.0304    0.0078   -0.0365   -0.0322   -0.0355
          29    0.1011    0.0026    0.0423   -0.0552    0.0337   -0.0814    0.1317    0.0076
          30   -0.1158    0.0310    0.0318   -0.1090    0.0368   -0.0206    0.0622    0.0262
          31   -0.2289    0.0147    0.0865   -0.0317    0.0280   -0.0248   -0.0039    0.0062
          32   -0.0239   -0.0185    0.0242    0.1386   -0.0139   -0.0955    0.0427   -0.1097
          33   -0.1464    0.0241    0.0267   -0.0486    0.0227   -0.0254    0.0222   -0.0144
          34    0.0034    0.0040    0.1151    0.0069    0.0316   -0.0831   -0.0201   -0.0544
          35   -0.0774   -0.0067   -0.0749    0.0150   -0.0364    0.0959    0.0582    0.0875
          36    0.2608    0.0138   -0.0055   -0.0847    0.0106    0.0277    0.0326    0.0459
          37   -0.0198    0.0056   -0.0102    0.0709    0.1978   -0.0852    0.0645    0.3163
          38   -0.0166    0.0170   -0.0149    0.1217   -0.0279    0.0149   -0.1513    0.1756
          39    0.0180   -0.0176   -0.0216   -0.0490   -0.0376    0.0326    0.0676   -0.1838


   Root No.       9        10        11        12        13        14        15        16

                 9 A      10 A      11 A      12 A      13 A      14 A      15 A      16 A   

                 906.1     940.6     975.2     995.9    1025.2    1089.0    1120.1    1205.0
  
           1   -0.0043    0.0000   -0.0066   -0.0017   -0.0002    0.0059   -0.0725   -0.0042
           2   -0.0180   -0.0063   -0.0017    0.0009   -0.0251    0.0505   -0.0254    0.0136
           3    0.0218   -0.0067   -0.0016    0.0021   -0.0023    0.0270    0.0674    0.0435
           4    0.0279   -0.0008    0.0212    0.0044   -0.0057   -0.0055    0.0688   -0.0143
           5   -0.0141   -0.0218   -0.0064   -0.0148    0.0249   -0.0262    0.0202   -0.0154
           6    0.0182   -0.0168    0.0297   -0.0073   -0.0014   -0.0132   -0.0380    0.0035
           7   -0.0162   -0.0175    0.0091    0.0369   -0.0051    0.0105    0.0021   -0.0047
           8    0.0030   -0.0059    0.0084    0.0176    0.0280   -0.0133   -0.0055    0.0052
           9   -0.0214    0.0200    0.0316   -0.0086    0.0214    0.0118    0.0076    0.0015
          10   -0.0088    0.0085   -0.0050   -0.0458    0.0000   -0.0132   -0.0058    0.0171
          11    0.0027    0.0032   -0.0026   -0.0202   -0.0082    0.0131    0.0056   -0.0184
          12   -0.0135   -0.0047   -0.0174    0.0160   -0.0196   -0.0267   -0.0229   -0.0108
          13   -0.0025    0.0066   -0.0198    0.0238    0.0269    0.0110   -0.0153   -0.0247
          14    0.0094   -0.0009   -0.0054    0.0070   -0.0473   -0.0229    0.0230    0.0178
          15   -0.0049   -0.0046   -0.0234   -0.0178    0.0000    0.0209   -0.0222   -0.0526
          16   -0.0300   -0.0120   -0.0546    0.0039    0.0523   -0.0132   -0.1189    0.4177
          17    0.0111    0.1804    0.0139    0.0933    0.0117   -0.1607   -0.0766   -0.1615
          18    0.0303    0.1482   -0.0162    0.0852    0.0590   -0.1657   -0.0051    0.1118
          19    0.1159   -0.1389    0.1791   -0.0567    0.0218   -0.1026   -0.0048   -0.0278
          20    0.0198    0.0349    0.0083    0.0164   -0.0321    0.0285   -0.0346    0.0015
          21   -0.0289    0.0225   -0.0404    0.0084    0.0056    0.0084    0.0163    0.0071
          22    0.1048    0.1513    0.0426    0.0911   -0.1402    0.1216    0.0738    0.0451
          23    0.0241    0.0322    0.0141    0.0165   -0.0296    0.0203    0.0007    0.0038
          24   -0.0257    0.0241   -0.0386    0.0105    0.0015    0.0110    0.0501    0.0145
          25   -0.0982   -0.0148   -0.1170   -0.0122    0.0865   -0.0485    0.3301   -0.0280
          26    0.0205    0.0443    0.0064    0.0207   -0.0345    0.0287   -0.0361    0.0037
          27   -0.0251    0.0326   -0.0400    0.0141    0.0004    0.0102    0.0572    0.0146
          28   -0.0212    0.0346    0.0244   -0.0362    0.0000    0.0213    0.0108   -0.0069
          29    0.1361   -0.0238   -0.1184   -0.0527    0.0118   -0.0977   -0.0417    0.0654
          30    0.0693   -0.0343   -0.0653    0.0041    0.0020   -0.0497   -0.0226    0.0367
          31    0.0378   -0.0244   -0.0499    0.0012   -0.0305   -0.0144   -0.0104   -0.0070
          32   -0.0591    0.1537    0.1222   -0.1548    0.1127    0.0159    0.0241    0.0718
          33    0.0103    0.0206   -0.0005   -0.0353    0.0116   -0.0045    0.0000    0.0066
          34    0.0447    0.0398   -0.0473   -0.0995   -0.0396   -0.0017   -0.0021   -0.0291
          35   -0.0880   -0.0649    0.0988    0.1826    0.0837    0.0087    0.0044    0.0428
          36    0.0020   -0.0459   -0.0049    0.0710    0.0123   -0.0128   -0.0093    0.0137
          37   -0.1060    0.0031    0.0363   -0.1014   -0.1407   -0.0645   -0.0077    0.0032
          38    0.1387    0.0207   -0.0540   -0.0094    0.2067    0.1412   -0.0540   -0.0605
          39   -0.0341   -0.0142   -0.0201    0.0278   -0.0705   -0.0319    0.0109   -0.0282


   Root No.      17        18        19        20        21        22        23        24

                17 A      18 A      19 A      20 A      21 A      22 A      23 A      24 A   

                1241.3    1363.1    1380.0    1380.5    1395.8    1400.1    1404.3    1465.9
  
           1   -0.0137   -0.0371    0.0004    0.0016   -0.0084    0.0081   -0.0004    0.1175
           2   -0.0378    0.0312   -0.0011   -0.0073    0.0122   -0.0007   -0.0015   -0.0434
           3   -0.0220   -0.0357   -0.0004   -0.0015    0.0062    0.0075   -0.0022    0.0587
           4   -0.0016   -0.0500    0.0011    0.0041    0.0126    0.0027   -0.0016   -0.0881
           5    0.0028   -0.0008    0.0000    0.0008   -0.0100    0.0202   -0.0315    0.0046
           6    0.0102    0.0015    0.0002    0.0009    0.0058   -0.0279   -0.0245   -0.0060
           7    0.0069   -0.0045   -0.0372   -0.0058   -0.0269   -0.0084    0.0025   -0.0063
           8   -0.0054    0.0022   -0.0199   -0.0187    0.0701    0.0225   -0.0068    0.0251
           9    0.0106   -0.0063    0.0116   -0.0433    0.0102    0.0040   -0.0014    0.0089
          10   -0.0373    0.0174   -0.0023   -0.0093    0.0194    0.0042   -0.0023   -0.0173
          11    0.0511   -0.0030    0.0012    0.0093   -0.0175   -0.0060    0.0021   -0.0143
          12   -0.0357    0.0301   -0.0013   -0.0101    0.0216    0.0025   -0.0019   -0.0406
          13    0.0157    0.0161   -0.0001    0.0013   -0.0043   -0.0035    0.0014   -0.0272
          14    0.0247   -0.0279    0.0018    0.0114   -0.0274   -0.0048    0.0022    0.0347
          15    0.0399    0.0057    0.0022    0.0119   -0.0320   -0.0110    0.0038   -0.0164
          16    0.1862    0.0470   -0.0002    0.0050   -0.0019   -0.0157    0.0017   -0.1207
          17   -0.0220    0.0094    0.0010   -0.0002   -0.0061    0.0003   -0.0031    0.0117
          18    0.0941   -0.0104    0.0010    0.0059   -0.0045   -0.0043   -0.0025   -0.0181
          19    0.0637    0.2261   -0.0037   -0.0128   -0.0427    0.0355    0.1346    0.0822
          20   -0.0153   -0.0554    0.0016    0.0001    0.1040   -0.2607    0.1846    0.0055
          21   -0.0083   -0.0723    0.0012    0.0063   -0.0155    0.0652   -0.1263   -0.0601
          22   -0.0046    0.2284   -0.0040   -0.0165   -0.0439    0.0229   -0.1298    0.0874
          23    0.0001    0.0803   -0.0013   -0.0054   -0.0065   -0.0412   -0.0921    0.0596
          24   -0.0009    0.0421   -0.0021   -0.0039   -0.0836    0.2912    0.1643   -0.0133
          25    0.0097    0.1653   -0.0029   -0.0127    0.0105   -0.1321    0.0132    0.1661
          26   -0.0162   -0.0521    0.0003    0.0002    0.0136    0.0633    0.2941   -0.0540
          27   -0.0006    0.0549   -0.0013   -0.0072    0.0188   -0.0322    0.2652    0.0619
          28    0.0286   -0.0017    0.3472   -0.0478    0.0030    0.0022   -0.0003    0.0032
          29   -0.1799    0.0075    0.1455   -0.1019   -0.1385   -0.0444    0.0114   -0.0496
          30   -0.1071   -0.0010   -0.1866   -0.0346   -0.1187   -0.0386    0.0102   -0.0405
          31   -0.0023    0.0320    0.2256    0.2459    0.0799    0.0237   -0.0048    0.0105
          32   -0.1190   -0.0037   -0.0956    0.1794   -0.1422   -0.0439    0.0138   -0.0250
          33   -0.0113    0.0178    0.1487    0.1476    0.0563    0.0173   -0.0038    0.0130
          34    0.0687    0.0026   -0.1088   -0.0688    0.0985    0.0302   -0.0097    0.0195
          35   -0.0917   -0.0160    0.1622   -0.0253   -0.1340   -0.0399    0.0122   -0.0172
          36   -0.0489    0.0309   -0.1107    0.3725    0.0460    0.0125   -0.0010    0.0081
          37    0.0068   -0.0082    0.0016    0.0052   -0.0144   -0.0036    0.0007    0.0079
          38    0.0221    0.0106    0.0013    0.0056   -0.0157   -0.0054    0.0020   -0.0099
          39    0.0473   -0.0052    0.0024    0.0157   -0.0407   -0.0127    0.0048   -0.0071


   Root No.      25        26        27        28        29        30        31        32

                25 A      26 A      27 A      28 A      29 A      30 A      31 A      32 A   

                2085.9    2972.5    3064.3    3075.8    3081.9    3083.8    3158.5    3180.3
  
           1    0.0514    0.0241    0.0000    0.0000    0.0000    0.0006    0.0000    0.0004
           2   -0.0415    0.0421    0.0000   -0.0002   -0.0001    0.0016    0.0001   -0.0001
           3    0.0415   -0.0486    0.0000    0.0000   -0.0001   -0.0018    0.0001    0.0002
           4   -0.0072    0.0003    0.0000    0.0000    0.0000    0.0007    0.0000    0.0247
           5    0.0015   -0.0025    0.0000    0.0001   -0.0433    0.0331    0.0000    0.0001
           6   -0.0018    0.0029   -0.0001    0.0000   -0.0381   -0.0376    0.0000   -0.0001
           7    0.0185    0.0000    0.0473   -0.0261   -0.0001   -0.0001    0.0077    0.0000
           8   -0.0635    0.0002    0.0218    0.0052    0.0000    0.0000   -0.0231    0.0000
           9   -0.0202    0.0000   -0.0254   -0.0440   -0.0001    0.0001   -0.0051    0.0000
          10   -0.0428    0.0006    0.0001    0.0000   -0.0002    0.0003    0.0000   -0.0001
          11    0.2360   -0.0015    0.0000   -0.0004    0.0001   -0.0002    0.0000    0.0001
          12    0.1236   -0.0019    0.0000   -0.0003   -0.0001    0.0000    0.0000   -0.0001
          13   -0.0121    0.0005    0.0002   -0.0001    0.0002    0.0003   -0.0001    0.0000
          14   -0.1190    0.0018    0.0001    0.0003   -0.0001    0.0000    0.0001    0.0001
          15   -0.1273    0.0007   -0.0001    0.0000    0.0000    0.0001   -0.0001    0.0000
          16   -0.0246   -0.3100    0.0001    0.0003   -0.0001   -0.0139    0.0001    0.0014
          17   -0.0309   -0.5122   -0.0002    0.0003   -0.0012   -0.0166    0.0000    0.0011
          18    0.0328    0.5918   -0.0002   -0.0004   -0.0007    0.0191   -0.0001   -0.0012
          19   -0.0077   -0.0032    0.0004   -0.0001    0.1576    0.0802    0.0002   -0.0958
          20   -0.0003   -0.0069    0.0004   -0.0001    0.1215    0.0898    0.0002   -0.0973
          21    0.0008   -0.0186    0.0010   -0.0004    0.4087    0.1975    0.0006   -0.2900
          22   -0.0078   -0.0031   -0.0001    0.0003   -0.1563    0.0807    0.0002   -0.0948
          23   -0.0012    0.0191    0.0002   -0.0009    0.4208   -0.2107   -0.0006    0.2997
          24    0.0006    0.0043    0.0000   -0.0002    0.0650   -0.0629   -0.0001    0.0573
          25    0.0105    0.0085   -0.0005   -0.0001   -0.0010   -0.1696    0.0002   -0.1091
          26   -0.0034    0.0212   -0.0007   -0.0002   -0.0235   -0.2734    0.0003   -0.2045
          27    0.0044   -0.0243    0.0008    0.0003   -0.0175    0.3134   -0.0004    0.2344
          28    0.0126    0.0005    0.0281    0.2491    0.0005   -0.0002   -0.1911   -0.0003
          29   -0.0025   -0.0005    0.0068   -0.1950   -0.0004    0.0001    0.1372    0.0002
          30    0.0221    0.0002   -0.0060    0.3149    0.0006   -0.0002   -0.2515   -0.0004
          31    0.0071   -0.0004   -0.2318   -0.1453    0.0000    0.0005   -0.1630   -0.0003
          32   -0.0028    0.0003   -0.0199   -0.0140    0.0000    0.0001   -0.0299   -0.0001
          33   -0.0179    0.0005    0.3983    0.1911   -0.0002   -0.0009    0.2640    0.0004
          34   -0.0134    0.0004   -0.3625    0.2072    0.0009    0.0004    0.2636    0.0006
          35   -0.0124    0.0004   -0.2476    0.1492    0.0007    0.0002    0.1646    0.0003
          36   -0.0077    0.0000   -0.0875    0.0203    0.0001    0.0001    0.0474    0.0001
          37   -0.0686    0.0032   -0.0003    0.0005    0.0003    0.0004    0.0007   -0.0002
          38   -0.1071    0.0018   -0.0001    0.0010    0.0002    0.0005    0.0009   -0.0004
          39   -0.2232    0.0046    0.0002    0.0019    0.0003    0.0010    0.0021   -0.0008


   Root No.      33

                33 A   

                3288.4
  
           1    0.0028
           2   -0.0026
           3    0.0034
           4    0.0001
           5    0.0000
           6    0.0002
           7    0.0004
           8   -0.0008
           9    0.0001
          10   -0.0018
          11    0.0126
          12    0.0076
          13   -0.0214
          14   -0.0393
          15   -0.0752
          16    0.0015
          17    0.0006
          18    0.0004
          19   -0.0006
          20   -0.0005
          21   -0.0015
          22   -0.0005
          23    0.0009
          24    0.0002
          25    0.0004
          26    0.0000
          27   -0.0001
          28    0.0003
          29   -0.0004
          30    0.0003
          31    0.0018
          32    0.0002
          33   -0.0031
          34   -0.0029
          35   -0.0020
          36   -0.0007
          37    0.2362
          38    0.3606
          39    0.7660


           MASS-WEIGHTED COORDINATE ANALYSIS (NORMAL COORDINATES)


   Root No.       1         2         3         4         5         6         7         8

                 1 A       2 A       3 A       4 A       5 A       6 A       7 A       8 A   

                 112.6     143.6     201.1     338.4     409.0     494.8     787.3     842.3
  
           1    0.0314   -0.0206   -0.1267   -0.0165   -0.2246   -0.2024    0.0029    0.0023
           2    0.0172   -0.0342   -0.1660   -0.3089    0.0948   -0.3168   -0.3322   -0.0552
           3    0.0326   -0.0776   -0.1057    0.0189    0.3988    0.1160   -0.1369   -0.0277
           4    0.0326   -0.0213   -0.1259   -0.0020   -0.2431   -0.2390    0.0487    0.0890
           5    0.0436    0.0181    0.4669    0.0189    0.0532    0.1557   -0.1156   -0.0302
           6   -0.1092    0.0247    0.1263   -0.1202   -0.2627   -0.0797   -0.0571   -0.0225
           7    0.0162    0.0191    0.4546   -0.0283    0.0593    0.0122   -0.1511    0.0785
           8    0.0066   -0.0418   -0.0634    0.1099   -0.0337   -0.0754    0.4590    0.0842
           9   -0.0111    0.1213    0.0819   -0.2460    0.0745   -0.0402    0.0766   -0.0549
          10   -0.0091    0.0031   -0.1819   -0.1372   -0.1314    0.6551   -0.1021    0.0419
          11   -0.0113   -0.0031   -0.2047   -0.1741   -0.0290    0.1377    0.1708    0.0379
          12    0.0226   -0.0198   -0.0519    0.5489   -0.0987   -0.0363   -0.1350   -0.0568
          13   -0.0763    0.0196   -0.1483    0.1299    0.4694   -0.0077    0.1789   -0.3864
          14   -0.0640    0.0556   -0.1591    0.2623   -0.0876    0.0501   -0.2034   -0.1623
          15    0.0830   -0.0878   -0.1039    0.0458   -0.0326    0.0644    0.1729    0.1749
          16    0.0320   -0.0147   -0.0064    0.0296   -0.0753   -0.0956    0.0035    0.0518
          17    0.0167   -0.0155   -0.0964   -0.2397    0.0796   -0.0642   -0.2469    0.0832
          18    0.0316   -0.0321   -0.0581   -0.1094    0.1462    0.0292   -0.1707    0.1048
          19    0.0344   -0.0382   -0.1370    0.0097    0.1299   -0.0771   -0.1221   -0.0619
          20    0.0485    0.5458    0.1457    0.0611    0.0142    0.1146    0.0493    0.0090
          21   -0.0536   -0.1605    0.0741   -0.0582   -0.1600   -0.0439    0.0118    0.0259
          22    0.0095    0.0175    0.1166    0.0690   -0.1363    0.0892    0.2316    0.1004
          23    0.0081   -0.0925    0.2003    0.0306    0.0048    0.1160    0.0454    0.0135
          24   -0.0076    0.5712    0.0102   -0.0244   -0.1550   -0.0551    0.0183    0.0307
          25   -0.0152    0.0020   -0.0884   -0.0773   -0.2076   -0.2269   -0.0525    0.0632
          26   -0.0115   -0.4078    0.2341    0.0169   -0.0019    0.1290    0.0509    0.0168
          27   -0.0663   -0.3488    0.0935   -0.0684   -0.1708   -0.0416    0.0186    0.0375
          28    0.4634   -0.0160    0.1644    0.0620    0.0157   -0.0703   -0.0691   -0.0685
          29    0.2085    0.0053    0.0868   -0.1125    0.0677   -0.1570    0.2831    0.0146
          30   -0.2389    0.0636    0.0653   -0.2221    0.0739   -0.0398    0.1337    0.0506
          31   -0.4722    0.0302    0.1776   -0.0647    0.0563   -0.0478   -0.0083    0.0119
          32   -0.0492   -0.0379    0.0497    0.2824   -0.0278   -0.1842    0.0917   -0.2120
          33   -0.3020    0.0495    0.0547   -0.0990    0.0455   -0.0490    0.0476   -0.0279
          34    0.0070    0.0081    0.2363    0.0141    0.0635   -0.1602   -0.0432   -0.1052
          35   -0.1597   -0.0137   -0.1538    0.0306   -0.0730    0.1851    0.1251    0.1690
          36    0.5380    0.0284   -0.0113   -0.1726    0.0213    0.0535    0.0700    0.0887
          37   -0.0409    0.0115   -0.0209    0.1445    0.3969   -0.1644    0.1387    0.6113
          38   -0.0343    0.0350   -0.0306    0.2479   -0.0560    0.0288   -0.3252    0.3394
          39    0.0372   -0.0361   -0.0443   -0.0999   -0.0754    0.0629    0.1453   -0.3552


   Root No.       9        10        11        12        13        14        15        16

                 9 A      10 A      11 A      12 A      13 A      14 A      15 A      16 A   

                 906.1     940.6     975.2     995.9    1025.2    1089.0    1120.1    1205.0
  
           1   -0.0385   -0.0003   -0.0577   -0.0138   -0.0015    0.0449   -0.4088   -0.0258
           2   -0.1615   -0.0541   -0.0149    0.0071   -0.1948    0.3877   -0.1430    0.0829
           3    0.1953   -0.0577   -0.0143    0.0169   -0.0179    0.2069    0.3796    0.2657
           4    0.2499   -0.0071    0.1858    0.0353   -0.0439   -0.0424    0.3875   -0.0874
           5   -0.1266   -0.1877   -0.0564   -0.1181    0.1933   -0.2010    0.1141   -0.0938
           6    0.1631   -0.1452    0.2603   -0.0586   -0.0111   -0.1012   -0.2141    0.0216
           7   -0.1454   -0.1509    0.0796    0.2954   -0.0397    0.0805    0.0119   -0.0284
           8    0.0269   -0.0512    0.0738    0.1412    0.2173   -0.1018   -0.0312    0.0316
           9   -0.1918    0.1719    0.2772   -0.0690    0.1661    0.0902    0.0427    0.0091
          10   -0.0790    0.0735   -0.0441   -0.3663    0.0003   -0.1014   -0.0325    0.1042
          11    0.0238    0.0274   -0.0225   -0.1620   -0.0638    0.1003    0.0318   -0.1125
          12   -0.1210   -0.0405   -0.1522    0.1281   -0.1515   -0.2047   -0.1290   -0.0660
          13   -0.0227    0.0569   -0.1736    0.1901    0.2086    0.0842   -0.0862   -0.1508
          14    0.0845   -0.0074   -0.0472    0.0560   -0.3667   -0.1755    0.1294    0.1087
          15   -0.0442   -0.0397   -0.2048   -0.1423    0.0001    0.1603   -0.1253   -0.3212
          16   -0.0780   -0.0301   -0.1387    0.0090    0.1173   -0.0294   -0.1941    0.7394
          17    0.0289    0.4504    0.0352    0.2163    0.0262   -0.3572   -0.1251   -0.2858
          18    0.0787    0.3700   -0.0411    0.1975    0.1325   -0.3682   -0.0084    0.1979
          19    0.3009   -0.3468    0.4546   -0.1315    0.0489   -0.2282   -0.0078   -0.0493
          20    0.0515    0.0871    0.0211    0.0381   -0.0720    0.0633   -0.0564    0.0026
          21   -0.0750    0.0563   -0.1025    0.0194    0.0127    0.0186    0.0265    0.0125
          22    0.2720    0.3776    0.1082    0.2112   -0.3148    0.2703    0.1204    0.0798
          23    0.0626    0.0804    0.0359    0.0383   -0.0664    0.0452    0.0011    0.0067
          24   -0.0667    0.0601   -0.0980    0.0244    0.0035    0.0244    0.0818    0.0256
          25   -0.2551   -0.0370   -0.2969   -0.0282    0.1941   -0.1078    0.5389   -0.0496
          26    0.0532    0.1107    0.0161    0.0481   -0.0775    0.0637   -0.0589    0.0066
          27   -0.0651    0.0814   -0.1015    0.0326    0.0009    0.0226    0.0934    0.0259
          28   -0.0551    0.0863    0.0620   -0.0839    0.0000    0.0473    0.0176   -0.0123
          29    0.3535   -0.0595   -0.3005   -0.1221    0.0264   -0.2171   -0.0681    0.1158
          30    0.1800   -0.0857   -0.1658    0.0095    0.0046   -0.1104   -0.0369    0.0649
          31    0.0982   -0.0609   -0.1267    0.0028   -0.0685   -0.0321   -0.0170   -0.0124
          32   -0.1536    0.3837    0.3103   -0.3588    0.2530    0.0353    0.0394    0.1271
          33    0.0267    0.0515   -0.0013   -0.0817    0.0260   -0.0101    0.0000    0.0117
          34    0.1160    0.0993   -0.1200   -0.2306   -0.0890   -0.0039   -0.0034   -0.0515
          35   -0.2286   -0.1621    0.2507    0.4233    0.1878    0.0192    0.0072    0.0758
          36    0.0051   -0.1145   -0.0125    0.1645    0.0275   -0.0285   -0.0152    0.0243
          37   -0.2751    0.0078    0.0921   -0.2349   -0.3157   -0.1435   -0.0126    0.0057
          38    0.3600    0.0516   -0.1369   -0.0217    0.4639    0.3139   -0.0882   -0.1070
          39   -0.0885   -0.0355   -0.0509    0.0645   -0.1583   -0.0710    0.0178   -0.0499


   Root No.      17        18        19        20        21        22        23        24

                17 A      18 A      19 A      20 A      21 A      22 A      23 A      24 A   

                1241.3    1363.1    1380.0    1380.5    1395.8    1400.1    1404.3    1465.9
  
           1   -0.0955   -0.2514    0.0024    0.0098   -0.0607    0.0600   -0.0027    0.5984
           2   -0.2626    0.2113   -0.0067   -0.0453    0.0884   -0.0053   -0.0094   -0.2213
           3   -0.1529   -0.2422   -0.0024   -0.0091    0.0451    0.0553   -0.0136    0.2991
           4   -0.0111   -0.3388    0.0065    0.0254    0.0914    0.0197   -0.0101   -0.4489
           5    0.0195   -0.0052   -0.0003    0.0050   -0.0726    0.1495   -0.1989    0.0233
           6    0.0712    0.0100    0.0015    0.0054    0.0423   -0.2064   -0.1547   -0.0304
           7    0.0483   -0.0306   -0.2230   -0.0362   -0.1946   -0.0621    0.0158   -0.0323
           8   -0.0375    0.0148   -0.1194   -0.1163    0.5071    0.1662   -0.0431    0.1280
           9    0.0737   -0.0430    0.0694   -0.2692    0.0737    0.0293   -0.0088    0.0453
          10   -0.2590    0.1183   -0.0140   -0.0578    0.1407    0.0311   -0.0147   -0.0883
          11    0.3554   -0.0205    0.0074    0.0581   -0.1268   -0.0441    0.0134   -0.0730
          12   -0.2481    0.2041   -0.0078   -0.0631    0.1562    0.0181   -0.0119   -0.2066
          13    0.1092    0.1091   -0.0004    0.0078   -0.0308   -0.0258    0.0089   -0.1383
          14    0.1714   -0.1892    0.0110    0.0711   -0.1985   -0.0354    0.0138    0.1767
          15    0.2770    0.0387    0.0134    0.0737   -0.2313   -0.0817    0.0243   -0.0836
          16    0.3749    0.0924   -0.0004    0.0091   -0.0041   -0.0336    0.0031   -0.1782
          17   -0.0444    0.0184    0.0017   -0.0003   -0.0128    0.0007   -0.0056    0.0173
          18    0.1895   -0.0205    0.0018    0.0107   -0.0094   -0.0092   -0.0046   -0.0267
          19    0.1282    0.4442   -0.0064   -0.0230   -0.0896    0.0761    0.2464    0.1213
          20   -0.0307   -0.1089    0.0028    0.0003    0.2181   -0.5588    0.3379    0.0080
          21   -0.0167   -0.1420    0.0020    0.0113   -0.0325    0.1398   -0.2313   -0.0886
          22   -0.0093    0.4487   -0.0069   -0.0298   -0.0921    0.0491   -0.2377    0.1289
          23    0.0003    0.1577   -0.0022   -0.0098   -0.0136   -0.0883   -0.1686    0.0880
          24   -0.0019    0.0827   -0.0036   -0.0070   -0.1752    0.6241    0.3008   -0.0196
          25    0.0195    0.3248   -0.0051   -0.0228    0.0219   -0.2832    0.0242    0.2450
          26   -0.0327   -0.1024    0.0006    0.0004    0.0286    0.1357    0.5385   -0.0797
          27   -0.0012    0.1079   -0.0023   -0.0129    0.0394   -0.0690    0.4855    0.0913
          28    0.0575   -0.0033    0.6024   -0.0862    0.0063    0.0047   -0.0006    0.0047
          29   -0.3623    0.0148    0.2525   -0.1837   -0.2904   -0.0951    0.0208   -0.0732
          30   -0.2156   -0.0020   -0.3237   -0.0623   -0.2488   -0.0827    0.0187   -0.0597
          31   -0.0047    0.0628    0.3914    0.4431    0.1676    0.0507   -0.0088    0.0154
          32   -0.2397   -0.0073   -0.1659    0.3233   -0.2981   -0.0941    0.0253   -0.0368
          33   -0.0228    0.0349    0.2579    0.2660    0.1181    0.0371   -0.0070    0.0192
          34    0.1384    0.0050   -0.1888   -0.1240    0.2064    0.0648   -0.0178    0.0288
          35   -0.1846   -0.0314    0.2813   -0.0456   -0.2811   -0.0855    0.0223   -0.0254
          36   -0.0985    0.0606   -0.1920    0.6714    0.0965    0.0269   -0.0019    0.0119
          37    0.0136   -0.0161    0.0028    0.0094   -0.0301   -0.0076    0.0013    0.0116
          38    0.0445    0.0209    0.0023    0.0100   -0.0329   -0.0116    0.0037   -0.0146
          39    0.0952   -0.0102    0.0041    0.0283   -0.0853   -0.0271    0.0088   -0.0104


   Root No.      25        26        27        28        29        30        31        32

                25 A      26 A      27 A      28 A      29 A      30 A      31 A      32 A   

                2085.9    2972.5    3064.3    3075.8    3081.9    3083.8    3158.5    3180.3
  
           1    0.1481    0.0950    0.0001    0.0002    0.0001    0.0035   -0.0001    0.0024
           2   -0.1197    0.1658    0.0000   -0.0012   -0.0006    0.0094    0.0004   -0.0009
           3    0.1198   -0.1916    0.0000   -0.0002   -0.0006   -0.0108    0.0005    0.0010
           4   -0.0208    0.0012    0.0000   -0.0001   -0.0001    0.0043   -0.0002    0.1508
           5    0.0043   -0.0097    0.0001    0.0006   -0.2220    0.1954    0.0000    0.0007
           6   -0.0052    0.0112   -0.0007    0.0002   -0.1953   -0.2220    0.0000   -0.0005
           7    0.0533    0.0002    0.2421   -0.1514   -0.0006   -0.0004    0.0467    0.0001
           8   -0.1833    0.0008    0.1116    0.0302   -0.0001   -0.0001   -0.1405   -0.0003
           9   -0.0584    0.0002   -0.1304   -0.2552   -0.0003    0.0006   -0.0311   -0.0001
          10   -0.1234    0.0024    0.0003    0.0001   -0.0011    0.0017   -0.0002   -0.0004
          11    0.6809   -0.0061    0.0000   -0.0021    0.0003   -0.0012    0.0003    0.0004
          12    0.3566   -0.0073   -0.0002   -0.0016   -0.0004    0.0000   -0.0001   -0.0004
          13   -0.0350    0.0018    0.0010   -0.0007    0.0010    0.0015   -0.0007   -0.0003
          14   -0.3433    0.0070    0.0005    0.0015   -0.0005   -0.0002    0.0006    0.0005
          15   -0.3673    0.0027   -0.0005    0.0001    0.0001    0.0004   -0.0009    0.0000
          16   -0.0206   -0.3540    0.0002    0.0004   -0.0002   -0.0238    0.0002    0.0024
          17   -0.0258   -0.5848   -0.0003    0.0005   -0.0018   -0.0284    0.0000    0.0019
          18    0.0274    0.6757   -0.0003   -0.0007   -0.0011    0.0328   -0.0002   -0.0022
          19   -0.0064   -0.0036    0.0006   -0.0002    0.2342    0.1374    0.0003   -0.1691
          20   -0.0002   -0.0079    0.0005   -0.0002    0.1805    0.1539    0.0003   -0.1717
          21    0.0006   -0.0212    0.0015   -0.0006    0.6074    0.3383    0.0010   -0.5120
          22   -0.0065   -0.0035   -0.0002    0.0006   -0.2323    0.1383    0.0003   -0.1674
          23   -0.0010    0.0218    0.0003   -0.0016    0.6253   -0.3609   -0.0011    0.5291
          24    0.0005    0.0050    0.0000   -0.0003    0.0967   -0.1078   -0.0002    0.1012
          25    0.0087    0.0098   -0.0007   -0.0002   -0.0015   -0.2905    0.0003   -0.1925
          26   -0.0029    0.0242   -0.0010   -0.0004   -0.0350   -0.4683    0.0005   -0.3610
          27    0.0037   -0.0277    0.0011    0.0005   -0.0261    0.5368   -0.0006    0.4139
          28    0.0105    0.0006    0.0417    0.4185    0.0007   -0.0004   -0.3368   -0.0005
          29   -0.0020   -0.0006    0.0101   -0.3276   -0.0006    0.0002    0.2418    0.0004
          30    0.0184    0.0002   -0.0088    0.5292    0.0009   -0.0003   -0.4433   -0.0007
          31    0.0060   -0.0005   -0.3440   -0.2441    0.0001    0.0009   -0.2872   -0.0005
          32   -0.0024    0.0003   -0.0295   -0.0235    0.0001    0.0001   -0.0527   -0.0001
          33   -0.0149    0.0005    0.5911    0.3211   -0.0003   -0.0015    0.4652    0.0008
          34   -0.0112    0.0005   -0.5380    0.3482    0.0014    0.0007    0.4646    0.0011
          35   -0.0104    0.0005   -0.3675    0.2507    0.0011    0.0004    0.2900    0.0006
          36   -0.0064    0.0000   -0.1299    0.0342    0.0002    0.0002    0.0835    0.0002
          37   -0.0573    0.0036   -0.0004    0.0009    0.0004    0.0007    0.0012   -0.0004
          38   -0.0895    0.0020   -0.0001    0.0017    0.0002    0.0008    0.0016   -0.0007
          39   -0.1865    0.0053    0.0003    0.0031    0.0005    0.0018    0.0036   -0.0015


   Root No.      33

                33 A   

                3288.4
  
           1    0.0105
           2   -0.0095
           3    0.0127
           4    0.0004
           5   -0.0002
           6    0.0006
           7    0.0016
           8   -0.0030
           9    0.0003
          10   -0.0065
          11    0.0466
          12    0.0281
          13   -0.0795
          14   -0.1458
          15   -0.2787
          16    0.0016
          17    0.0006
          18    0.0004
          19   -0.0006
          20   -0.0006
          21   -0.0016
          22   -0.0005
          23    0.0009
          24    0.0002
          25    0.0004
          26    0.0000
          27   -0.0001
          28    0.0004
          29   -0.0004
          30    0.0003
          31    0.0020
          32    0.0003
          33   -0.0033
          34   -0.0031
          35   -0.0021
          36   -0.0008
          37    0.2537
          38    0.3874
          39    0.8228


          DESCRIPTION OF VIBRATIONS


 VIBRATION    1    1A       ATOM PAIR        ENERGY CONTRIBUTION    RADIAL
 FREQ.       112.61        C  3 --  H 11          +31.0% (521.0%)     0.1%
 T-DIPOLE    0.0215        C  3 --  H 12          +30.9% (520.0%)     0.0%
 TRAVEL      0.2243        C  3 --  H 10          +30.2% (514.4%)     0.0%
 RED. MASS   0.3074        C  1 --  C  2           +1.8% (124.6%)     0.0%
 EFF. MASS  11.9063

 VIBRATION    2    2A       ATOM PAIR        ENERGY CONTRIBUTION    RADIAL
 FREQ.       143.60        C  2 --  H  8          +31.3% (421.0%)     0.1%
 T-DIPOLE    0.0190        C  2 --  H  7          +30.7% (416.8%)     0.1%
 TRAVEL      0.2235        C  2 --  H  9          +28.5% (401.3%)     0.0%
 RED. MASS   0.3090        C  3 --  C  4           +1.8% (100.0%)     0.0%
 EFF. MASS   9.3972

 VIBRATION    3    3A       ATOM PAIR        ENERGY CONTRIBUTION    RADIAL
 FREQ.       201.06        C  3 --  C  4          +13.6% (292.4%)     0.0%
 T-DIPOLE    0.1425        C  1 --  C  2          +13.5% (292.1%)     0.0%
 TRAVEL      0.0590        C  2 --  H  9          +10.9% (262.6%)    19.2%
 RED. MASS   1.4860        C  2 --  H  7          +10.4% (256.4%)    20.0%
 EFF. MASS  96.3464

 VIBRATION    4    4A       ATOM PAIR        ENERGY CONTRIBUTION    RADIAL
 FREQ.       338.44        C  3 --  C  4          +19.7% (174.7%)     0.0%
 T-DIPOLE    0.2555        C  1 --  C  4          +14.1% (147.6%)     0.3%
 TRAVEL      0.0891        C  1 --  C  5          +13.1% (142.2%)     0.0%
 RED. MASS   1.7733        C  4 --  C  5          +11.7% (134.5%)     0.0%
 EFF. MASS  25.0813

 VIBRATION    5    5A       ATOM PAIR        ENERGY CONTRIBUTION    RADIAL
 FREQ.       409.03        C  1 --  C  2          +18.2% (136.9%)     0.1%
 T-DIPOLE    0.0911        C  1 --  C  5          +15.5% (126.4%)     0.0%
 TRAVEL      0.0911        C  1 --  C  4          +12.4% (113.1%)     0.1%
 RED. MASS   1.4582        C  2 --  H  9          +10.3% (103.1%)    55.2%
 EFF. MASS  19.8845

 VIBRATION    6    6A       ATOM PAIR        ENERGY CONTRIBUTION    RADIAL
 FREQ.       494.77        C  1 --  C  4          +19.0% (117.5%)     0.1%
 T-DIPOLE    0.4191        C  1 --  C  2          +13.0% ( 97.3%)     0.5%
 TRAVEL      0.0953        C  3 --  C  4          +10.5% ( 87.6%)     0.1%
 RED. MASS   2.8218        C  4 --  C  5          +10.4% ( 87.1%)     0.0%
 EFF. MASS  15.0032        C  1 --  C  5          +10.3% ( 86.5%)     0.0%

 VIBRATION    7    7A       ATOM PAIR        ENERGY CONTRIBUTION    RADIAL
 FREQ.       787.32        C  3 --  H 10          +14.5% ( 73.2%)    65.6%
 T-DIPOLE    0.0872        C  3 --  H 11          +13.5% ( 70.7%)     4.8%
 TRAVEL      0.0957        C  3 --  H 12          +13.3% ( 70.2%)     8.9%
 RED. MASS   1.1057        C  3 --  C  4          +12.1% ( 67.0%)    87.5%
 EFF. MASS   9.3493        C  1 --  C  4          +10.2% ( 61.4%)    81.4%

 VIBRATION    8    8A       ATOM PAIR        ENERGY CONTRIBUTION    RADIAL
 FREQ.       842.34        C  5 --  H 13          +59.3% ( 90.8%)     0.0%
 T-DIPOLE    0.5725        C  3 --  H 11           +7.3% ( 31.8%)     5.1%
 TRAVEL      0.1641        C  4 --  C  5           +6.5% ( 30.0%)     0.0%
 RED. MASS   0.9020        C  3 --  H 12           +6.4% ( 29.7%)     9.3%
 EFF. MASS   2.9728

 VIBRATION    9    9A       ATOM PAIR        ENERGY CONTRIBUTION    RADIAL
 FREQ.       906.12        C  2 --  H  9          +13.6% ( 56.4%)     1.6%
 T-DIPOLE    0.1076        C  3 --  H 10          +12.0% ( 53.1%)    10.9%
 TRAVEL      0.1233        C  1 --  C  2          +11.4% ( 51.8%)    97.4%
 RED. MASS   0.3317        C  2 --  H  7           +9.9% ( 48.2%)    21.5%
 EFF. MASS   4.8927

 VIBRATION   10   10A       ATOM PAIR        ENERGY CONTRIBUTION    RADIAL
 FREQ.       940.63        C  1 --  H  6          +22.0% ( 59.9%)     0.0%
 T-DIPOLE    0.1100        C  2 --  H  8          +16.5% ( 51.8%)     8.2%
 TRAVEL      0.1671        C  2 --  H  7          +14.6% ( 48.9%)     8.4%
 RED. MASS   0.2606        C  3 --  H 11          +13.7% ( 47.3%)    12.9%
 EFF. MASS   2.5663

 VIBRATION   11   11A       ATOM PAIR        ENERGY CONTRIBUTION    RADIAL
 FREQ.       975.23        C  2 --  H  7          +14.2% ( 56.8%)    19.7%
 T-DIPOLE    0.1585        C  2 --  H  9          +13.3% ( 54.9%)     3.3%
 TRAVEL      0.1184        C  3 --  H 10          +11.9% ( 52.0%)     7.0%
 RED. MASS   0.3955        C  3 --  H 11           +9.3% ( 45.9%)    10.4%
 EFF. MASS   4.9340

 VIBRATION   12   12A       ATOM PAIR        ENERGY CONTRIBUTION    RADIAL
 FREQ.       995.88        C  3 --  H 12          +23.6% ( 60.4%)    12.2%
 T-DIPOLE    0.1736        C  3 --  H 11          +17.5% ( 51.9%)     7.8%
 TRAVEL      0.1203        C  3 --  C  4          +14.9% ( 47.9%)     0.3%
 RED. MASS   0.6732        C  3 --  H 10          +11.4% ( 42.0%)     0.7%
 EFF. MASS   4.6759

 VIBRATION   13   13A       ATOM PAIR        ENERGY CONTRIBUTION    RADIAL
 FREQ.      1025.15        C  5 --  H 13          +29.6% ( 76.0%)     0.4%
 T-DIPOLE    0.1676        C  1 --  C  5          +10.5% ( 45.2%)    29.4%
 TRAVEL      0.1166        C  3 --  C  4           +9.9% ( 43.9%)    70.7%
 RED. MASS   0.6328        C  2 --  H  8           +7.2% ( 37.5%)    13.9%
 EFF. MASS   4.8395

 VIBRATION   14   14A       ATOM PAIR        ENERGY CONTRIBUTION    RADIAL
 FREQ.      1088.97        C  1 --  H  6          +25.7% ( 64.2%)     0.7%
 T-DIPOLE    0.1392        C  1 --  C  2          +11.8% ( 43.5%)     1.7%
 TRAVEL      0.1161        C  5 --  H 13          +10.4% ( 40.9%)     1.2%
 RED. MASS   0.6918        C  1 --  C  5           +8.2% ( 36.2%)     1.3%
 EFF. MASS   4.5963

 VIBRATION   15   15A       ATOM PAIR        ENERGY CONTRIBUTION    RADIAL
 FREQ.      1120.10        C  1 --  C  2          +28.3% ( 82.7%)    60.2%
 T-DIPOLE    0.2857        C  2 --  H  9          +14.6% ( 59.4%)    46.3%
 TRAVEL      0.0835        C  1 --  C  5          +14.4% ( 58.9%)    21.4%
 RED. MASS   1.9650        C  1 --  C  4          +12.9% ( 55.8%)     1.8%
 EFF. MASS   8.6250

 VIBRATION   16   16A       ATOM PAIR        ENERGY CONTRIBUTION    RADIAL
 FREQ.      1204.99        C  1 --  H  6          +45.7% ( 82.3%)     1.8%
 T-DIPOLE    0.2001        C  1 --  C  5          +17.6% ( 51.0%)    88.6%
 TRAVEL      0.1182        C  4 --  C  5           +9.8% ( 38.0%)     0.0%
 RED. MASS   0.7639        C  5 --  H 13           +8.1% ( 34.6%)    25.2%
 EFF. MASS   4.0059

 VIBRATION   17   17A       ATOM PAIR        ENERGY CONTRIBUTION    RADIAL
 FREQ.      1241.25        C  4 --  C  5          +18.4% ( 59.0%)     9.3%
 T-DIPOLE    0.1712        C  1 --  C  4          +16.7% ( 56.2%)    90.1%
 TRAVEL      0.0915        C  1 --  C  5          +15.4% ( 53.9%)    39.4%
 RED. MASS   1.1460        C  3 --  C  4          +13.3% ( 50.1%)    36.1%
 EFF. MASS   6.4910        C  1 --  H  6          +11.8% ( 47.2%)     1.3%

 VIBRATION   18   18A       ATOM PAIR        ENERGY CONTRIBUTION    RADIAL
 FREQ.      1363.11        C  2 --  H  8          +16.6% ( 51.8%)     2.1%
 T-DIPOLE    0.1323        C  2 --  H  7          +16.4% ( 51.5%)     2.0%
 TRAVEL      0.1008        C  1 --  C  4          +13.4% ( 46.5%)    63.9%
 RED. MASS   0.6829        C  1 --  C  5          +12.9% ( 45.6%)    62.6%
 EFF. MASS   4.8701        C  2 --  H  9          +11.7% ( 43.6%)     3.5%
                           C  1 --  C  2          +10.9% ( 41.9%)     6.5%

 VIBRATION   19   19A       ATOM PAIR        ENERGY CONTRIBUTION    RADIAL
 FREQ.      1380.00        C  3 --  H 10          +53.4% ( 63.6%)     0.0%
 T-DIPOLE    0.0643        C  3 --  H 11          +25.3% ( 43.7%)     6.5%
 TRAVEL      0.1747        C  3 --  H 12          +15.7% ( 34.4%)    19.7%
 RED. MASS   0.4263        C  3 --  C  4           +5.4% ( 20.2%)     2.1%
 EFF. MASS   1.6017

 VIBRATION   20   20A       ATOM PAIR        ENERGY CONTRIBUTION    RADIAL
 FREQ.      1380.46        C  3 --  H 12          +42.9% ( 60.6%)     1.7%
 T-DIPOLE    0.0921        C  3 --  H 11          +34.5% ( 54.3%)     4.8%
 TRAVEL      0.1534        C  3 --  C  4           +7.7% ( 25.8%)    68.3%
 RED. MASS   0.4565        C  3 --  H 10           +7.6% ( 25.6%)    43.2%
 EFF. MASS   2.0756

 VIBRATION   21   21A       ATOM PAIR        ENERGY CONTRIBUTION    RADIAL
 FREQ.      1395.83        C  3 --  H 12          +17.9% ( 57.9%)     1.9%
 T-DIPOLE    0.0412        C  3 --  H 11          +17.9% ( 57.9%)     2.0%
 TRAVEL      0.0882        C  3 --  H 10          +17.6% ( 57.5%)     7.4%
 RED. MASS   1.2997        C  3 --  C  4          +16.1% ( 54.9%)    81.7%
 EFF. MASS   6.2167

 VIBRATION   22   22A       ATOM PAIR        ENERGY CONTRIBUTION    RADIAL
 FREQ.      1400.06        C  2 --  H  8          +34.6% ( 55.5%)     0.9%
 T-DIPOLE    0.0631        C  2 --  H  7          +29.4% ( 51.2%)     2.2%
 TRAVEL      0.1505        C  2 --  H  9           +9.3% ( 28.9%)    43.7%
 RED. MASS   0.3527        C  1 --  C  2           +5.1% ( 21.4%)     1.7%
 EFF. MASS   2.1269

 VIBRATION   23   23A       ATOM PAIR        ENERGY CONTRIBUTION    RADIAL
 FREQ.      1404.33        C  2 --  H  9          +52.1% ( 62.6%)     0.0%
 T-DIPOLE    0.0287        C  2 --  H  7          +23.1% ( 41.7%)     9.3%
 TRAVEL      0.1740        C  2 --  H  8          +18.1% ( 36.8%)    13.6%
 RED. MASS   0.4113        C  1 --  C  2           +4.9% ( 19.1%)     0.1%
 EFF. MASS   1.5869

 VIBRATION   24   24A       ATOM PAIR        ENERGY CONTRIBUTION    RADIAL
 FREQ.      1465.86        C  1 --  C  2          +24.7% ( 80.6%)    86.7%
 T-DIPOLE    0.4257        C  1 --  C  5          +17.6% ( 68.0%)    67.8%
 TRAVEL      0.0676        C  1 --  H  6          +16.2% ( 65.3%)     0.8%
 RED. MASS   3.5455        C  1 --  C  4          +16.2% ( 65.3%)    49.5%
 EFF. MASS  10.0566

 VIBRATION   25   25A       ATOM PAIR        ENERGY CONTRIBUTION    RADIAL
 FREQ.      2085.89        C  4 --  C  5          +38.8% ( 92.6%)    98.6%
 T-DIPOLE    0.3758        C  3 --  C  4          +21.5% ( 68.9%)    96.9%
 TRAVEL      0.0522        C  1 --  C  4          +21.0% ( 68.1%)    68.7%
 RED. MASS   5.2375        C  1 --  C  5           +9.0% ( 44.6%)    69.8%
 EFF. MASS  11.8420

 VIBRATION   26   26A       ATOM PAIR        ENERGY CONTRIBUTION    RADIAL
 FREQ.      2972.51        C  1 --  H  6          +96.5% ( 99.9%)   100.0%
 T-DIPOLE    0.0369        C  1 --  C  2           +1.1% ( 10.5%)    10.9%
 TRAVEL      0.1255        C  1 --  C  4           +1.1% ( 10.5%)    28.3%
 RED. MASS   0.9247        C  1 --  C  5           +1.1% ( 10.5%)    27.7%
 EFF. MASS   1.4401

 VIBRATION   27   27A       ATOM PAIR        ENERGY CONTRIBUTION    RADIAL
 FREQ.      3064.27        C  3 --  H 11          +50.4% ( 73.3%)    97.2%
 T-DIPOLE    0.0594        C  3 --  H 12          +47.6% ( 71.2%)    96.8%
 TRAVEL      0.1208        C  3 --  C  4           +1.0% ( 10.3%)     0.0%
 RED. MASS   0.5109        C  3 --  H 10           +0.9% ( 10.0%)     0.5%
 EFF. MASS   1.5069

 VIBRATION   28   28A       ATOM PAIR        ENERGY CONTRIBUTION    RADIAL
 FREQ.      3075.82        C  3 --  H 10          +60.9% ( 80.5%)    98.7%
 T-DIPOLE    0.0644        C  3 --  H 12          +20.2% ( 46.3%)    86.8%
 TRAVEL      0.1203        C  3 --  H 11          +17.9% ( 43.6%)    84.7%
 RED. MASS   0.4754        C  3 --  C  4           +1.0% ( 10.4%)     0.0%
 EFF. MASS   1.5137

 VIBRATION   29   29A       ATOM PAIR        ENERGY CONTRIBUTION    RADIAL
 FREQ.      3081.90        C  2 --  H  7          +49.1% ( 72.3%)    97.1%
 T-DIPOLE    0.0216        C  2 --  H  8          +48.9% ( 72.2%)    97.0%
 TRAVEL      0.1206        C  1 --  C  2           +1.0% ( 10.3%)     0.0%
 RED. MASS   0.5097        C  2 --  H  9           +0.9% ( 10.0%)     0.0%
 EFF. MASS   1.5043

 VIBRATION   30   30A       ATOM PAIR        ENERGY CONTRIBUTION    RADIAL
 FREQ.      3083.77        C  2 --  H  9          +63.6% ( 82.3%)    98.8%
 T-DIPOLE    0.0231        C  2 --  H  8          +17.8% ( 43.5%)    85.2%
 TRAVEL      0.1205        C  2 --  H  7          +17.3% ( 43.0%)    84.8%
 RED. MASS   0.4960        C  1 --  C  2           +1.0% ( 10.4%)     0.0%
 EFF. MASS   1.5071

 VIBRATION   31   31A       ATOM PAIR        ENERGY CONTRIBUTION    RADIAL
 FREQ.      3158.55        C  3 --  H 10          +38.0% ( 59.5%)    97.7%
 T-DIPOLE    0.0952        C  3 --  H 12          +31.1% ( 53.8%)    96.7%
 TRAVEL      0.1368        C  3 --  H 11          +30.5% ( 53.3%)    96.6%
 RED. MASS   0.3298        C  3 --  C  4           +0.3% (  5.6%)    99.3%
 EFF. MASS   1.1404

 VIBRATION   32   32A       ATOM PAIR        ENERGY CONTRIBUTION    RADIAL
 FREQ.      3180.26        C  2 --  H  9          +34.7% ( 56.7%)    97.3%
 T-DIPOLE    0.0300        C  2 --  H  7          +32.6% ( 55.0%)    97.1%
 TRAVEL      0.1366        C  2 --  H  8          +32.4% ( 54.8%)    97.0%
 RED. MASS   0.3273        C  1 --  C  2           +0.3% (  5.2%)   100.0%
 EFF. MASS   1.1367

 VIBRATION   33   33A       ATOM PAIR        ENERGY CONTRIBUTION    RADIAL
 FREQ.      3288.41        C  5 --  H 13          +94.2% ( 99.7%)   100.0%
 T-DIPOLE    0.6981        C  4 --  C  5           +3.1% ( 18.0%)    87.7%
 TRAVEL      0.1084        C  1 --  C  5           +2.6% ( 16.5%)    66.7%
 RED. MASS   0.9339
 EFF. MASS   1.7466

 SYMMETRY NUMBER FOR POINT-GROUP C1  =  1


          SYSTEM IS A GROUND STATE


    NULL



          MOLECULE IS NOT LINEAR

          THERE ARE 33 GENUINE VIBRATIONS IN THIS SYSTEM
          THIS THERMODYNAMICS CALCULATION IS LIMITED TO
          MOLECULES WHICH HAVE NO INTERNAL ROTATIONS




                    CALCULATED THERMODYNAMIC PROPERTIES
                                          *
   TEMP. (K)   PARTITION FUNCTION   H.O.F.    ENTHALPY  HEAT CAPACITY ENTROPY
                                   KCAL/MOL   CAL/MOLE    CAL/K/MOL  CAL/K/MOL


 298.00  VIB.     0.1362D+02                  2080.9371    15.0115    12.1734
         ROT.     0.8062D+05                   888.2813     2.9808    25.4314
         INT.     0.1098D+07                  2969.2184    17.9923    37.6047
         TRA.     0.5435D+27                  1480.4688     4.9680    38.5714
         TOT.                       49.470    4449.6872    22.9603    76.1761

 200.00  VIB.     0.4409D+01                   892.8020     9.4416     7.4123
         ROT.     0.4433D+05                   596.1620     2.9808    24.2427
         INT.     0.1954D+06                  1488.9640    12.4225    31.6550
         TRA.     0.2988D+27                   993.6033     4.9680    36.5902
         TOT.                       47.503    2482.5672    17.3905    68.2452

 210.00  VIB.     0.4935D+01                   989.7384     9.9482     7.8851
         ROT.     0.4769D+05                   625.9700     2.9808    24.3881
         INT.     0.2353D+06                  1615.7085    12.9290    32.2733
         TRA.     0.3215D+27                  1043.2834     4.9680    36.8326
         TOT.                       47.679    2658.9919    17.8970    69.1059

 220.00  VIB.     0.5526D+01                  1091.8174    10.4702     8.3599
         ROT.     0.5114D+05                   655.7781     2.9808    24.5268
         INT.     0.2826D+06                  1747.5956    13.4510    32.8867
         TRA.     0.3448D+27                  1092.9636     4.9680    37.0637
         TOT.                       47.861    2840.5591    18.4191    69.9504

 230.00  VIB.     0.6192D+01                  1199.1954    11.0080     8.8371
         ROT.     0.5467D+05                   685.5862     2.9808    24.6593
         INT.     0.3385D+06                  1884.7816    13.9888    33.4964
         TRA.     0.3685D+27                  1142.6437     4.9680    37.2846
         TOT.                       48.048    3027.4253    18.9568    70.7810

 240.00  VIB.     0.6942D+01                  1312.0277    11.5610     9.3173
         ROT.     0.5827D+05                   715.3943     2.9808    24.7861
         INT.     0.4045D+06                  2027.4220    14.5418    34.1034
         TRA.     0.3928D+27                  1192.3239     4.9680    37.4960
         TOT.                       48.240    3219.7459    19.5098    71.5994

 250.00  VIB.     0.7788D+01                  1430.4638    12.1285     9.8007
         ROT.     0.6195D+05                   745.2024     2.9808    24.9078
         INT.     0.4824D+06                  2175.6662    15.1093    34.7085
         TRA.     0.4176D+27                  1242.0041     4.9680    37.6988
         TOT.                       48.438    3417.6703    20.0774    72.4073

 260.00  VIB.     0.8741D+01                  1554.6429    12.7094    10.2876
         ROT.     0.6570D+05                   775.0105     2.9808    25.0247
         INT.     0.5743D+06                  2329.6534    15.6902    35.3124
         TRA.     0.4430D+27                  1291.6842     4.9680    37.8937
         TOT.                       48.642    3621.3376    20.6582    73.2060

 270.00  VIB.     0.9816D+01                  1684.6914    13.3022    10.7784
         ROT.     0.6953D+05                   804.8186     2.9808    25.1372
         INT.     0.6825D+06                  2489.5100    16.2830    35.9156
         TRA.     0.4687D+27                  1341.3644     4.9680    38.0812
         TOT.                       48.851    3830.8744    21.2510    73.9968

 280.00  VIB.     0.1103D+02                  1820.7207    13.9053    11.2730
         ROT.     0.7343D+05                   834.6267     2.9808    25.2456
         INT.     0.8099D+06                  2655.3474    16.8861    36.5187
         TRA.     0.4950D+27                  1391.0445     4.9680    38.2618
         TOT.                       49.067    4046.3920    21.8541    74.7805

 290.00  VIB.     0.1240D+02                  1962.8257    14.5170    11.7716
         ROT.     0.7740D+05                   864.4348     2.9808    25.3502
         INT.     0.9598D+06                  2827.2605    17.4978    37.1219
         TRA.     0.5218D+27                  1440.7247     4.9680    38.4362
         TOT.                       49.288    4267.9852    22.4658    75.5580

 300.00  VIB.     0.1395D+02                  2111.0842    15.1357    12.2742
         ROT.     0.8144D+05                   894.2429     2.9808    25.4513
         INT.     0.1136D+07                  3005.3272    18.1165    37.7255
         TRA.     0.5490D+27                  1490.4049     4.9680    38.6046
         TOT.                       49.516    4495.7320    23.0845    76.3301

 310.00  VIB.     0.1570D+02                  2265.5569    15.7596    12.7806
         ROT.     0.8554D+05                   924.0510     2.9808    25.5490
         INT.     0.1343D+07                  3189.6079    18.7404    38.3297
         TRA.     0.5767D+27                  1540.0850     4.9680    38.7675
         TOT.                       49.750    4729.6930    23.7084    77.0972

 320.00  VIB.     0.1769D+02                  2426.2874    16.3870    13.2909
         ROT.     0.8971D+05                   953.8591     2.9808    25.6437
         INT.     0.1587D+07                  3380.1466    19.3678    38.9346
         TRA.     0.6048D+27                  1589.7652     4.9680    38.9252
         TOT.                       49.990    4969.9118    24.3358    77.8598

 330.00  VIB.     0.1993D+02                  2593.3032    17.0164    13.8048
         ROT.     0.9395D+05                   983.6672     2.9808    25.7354
         INT.     0.1873D+07                  3576.9704    19.9972    39.5402
         TRA.     0.6334D+27                  1639.4454     4.9680    39.0781
         TOT.                       50.237    5216.4158    24.9652    78.6183

 340.00  VIB.     0.2248D+02                  2766.6161    17.6462    14.3221
         ROT.     0.9825D+05                  1013.4753     2.9808    25.8244
         INT.     0.2208D+07                  3780.0914    20.6270    40.1465
         TRA.     0.6624D+27                  1689.1255     4.9680    39.2264
         TOT.                       50.490    5469.2169    25.5950    79.3729

 350.00  VIB.     0.2536D+02                  2946.2237    18.2751    14.8427
         ROT.     0.1026D+06                  1043.2834     2.9808    25.9108
         INT.     0.2602D+07                  3989.5071    21.2559    40.7535
         TRA.     0.6918D+27                  1738.8057     4.9680    39.3704
         TOT.                       50.749    5728.3128    26.2239    80.1239

 360.00  VIB.     0.2863D+02                  3132.1102    18.9018    15.3663
         ROT.     0.1071D+06                  1073.0915     2.9808    25.9948
         INT.     0.3065D+07                  4205.2017    21.8826    41.3611
         TRA.     0.7217D+27                  1788.4859     4.9680    39.5104
         TOT.                       51.014    5993.6875    26.8506    80.8714

 370.00  VIB.     0.3234D+02                  3324.2479    19.5251    15.8927
         ROT.     0.1115D+06                  1102.8996     2.9808    26.0764
         INT.     0.3607D+07                  4427.1475    22.5059    41.9691
         TRA.     0.7520D+27                  1838.1660     4.9680    39.6465
         TOT.                       51.286    6265.3135    27.4740    81.6156

 380.00  VIB.     0.3656D+02                  3522.5982    20.1441    16.4217
         ROT.     0.1161D+06                  1132.7077     2.9808    26.1559
         INT.     0.4244D+07                  4655.3059    23.1250    42.5776
         TRA.     0.7827D+27                  1887.8462     4.9680    39.7790
         TOT.                       51.563    6543.1521    28.0930    82.3565

 390.00  VIB.     0.4134D+02                  3727.1132    20.7579    16.9529
         ROT.     0.1207D+06                  1162.5158     2.9808    26.2333
         INT.     0.4990D+07                  4889.6290    23.7387    43.1862
         TRA.     0.8138D+27                  1937.5263     4.9680    39.9080
         TOT.                       51.847    6827.1554    28.7067    83.0942

 400.00  VIB.     0.4678D+02                  3937.7364    21.3657    17.4861
         ROT.     0.1254D+06                  1192.3239     2.9808    26.3088
         INT.     0.5865D+07                  5130.0603    24.3465    43.7949
         TRA.     0.8452D+27                  1987.2065     4.9680    40.0338
         TOT.                       52.138    7117.2668    29.3145    83.8287

   *: NOTE: HEATS OF FORMATION ARE RELATIVE TO THE
            ELEMENTS IN THEIR STANDARD STATE AT 298K
              (=  Standard Enthalpy of Formation).

            Hvib:  Zero-point energy is not included.
                   frequencies of less than zero cm-1 are not included.
            Hrot = (3/2)RT
            Htra = (3/2)RT + pV = (5/2)RT

            Heat capacity is Cp, not Cv

           For more information, see: HTTP://OpenMOPAC.net/Manual/thermochemistry.html


           FORCE CONSTANT IN CARTESIAN COORDINATES (Millidynes/A)

    ATOM   CHEMICAL       X               Y               Z
   NUMBER   SYMBOL  FORCE CONSTANT  FORCE CONSTANT  FORCE CONSTANT

      1       C        9.413710        7.128855        8.129986
      2       C        8.616715        8.258674        8.297234
      3       C        8.178563        9.551193        8.246874
      4       C        3.920326       16.860049        7.681034
      5       C        3.457552        9.154807       14.140483
      6       H        1.367791        2.142186        2.695897
      7       H        1.211893        1.083548        4.438802
      8       H        1.205383        4.720732        0.806100
      9       H        1.336420        2.439545        2.996727
     10       H        2.108791        1.502191        3.049683
     11       H        1.942744        0.649581        3.995607
     12       H        3.774614        2.062104        0.752990
     13       H        0.760713        1.375816        4.548439



 TOTAL CPU TIME:             0.56 SECONDS

 == MOPAC DONE ==
