 *******************************************************************************
 ** Site#: 14399           For non-commercial use only        Version 13.159M **
 *******************************************************************************
 ** Cite this work as: MOPAC2012, James J. P. Stewart, Stewart Computational  **
 ** Chemistry, Version 13.159M web: HTTP://OpenMOPAC.net  Days remaining:   5 **
 *******************************************************************************
 **                                                                           **
 **                                MOPAC2012                                  **
 **                                                                           **
 *******************************************************************************

                            PM3 CALCULATION RESULTS


 *******************************************************************************
 *  CALCULATION DONE:                                Tue Jun  3 11:51:52 2014  *
 *  PM3      - The PM3 Hamiltonian to be used
 *  PRECISE  - CRITERIA TO BE INCREASED BY 100 TIMES
 *  NOSYM    - POINT-GROUP SYMMETRY SET TO C1
 *  T=       - A TIME OF 172800.0 SECONDS REQUESTED
 *  DUMP=N   - RESTART FILE WRITTEN EVERY  7200.000 SECONDS
 *******************************************************************************
pm3  precise nosym
 InChI=1S/C6H10/c1-5-3-4-6(5)2/h3-6H,1-2H3

   ATOM   CHEMICAL          X               Y               Z
  NUMBER   SYMBOL      (ANGSTROMS)     (ANGSTROMS)     (ANGSTROMS)
 
     1       C          0.57090000  *  -0.08230000  *   0.50830000  *
     2       C         -0.56190000  *  -0.09110000  *  -0.53140000  *
     3       C          1.93510000  *  -0.53210000  *  -0.01130000  *
     4       C         -1.85340000  *  -0.77380000  *  -0.08680000  *
     5       C          0.41870000  *   1.45260000  *   0.56190000  *
     6       C         -0.56210000  *   1.33980000  *  -0.31990000  *
     7       H         -0.26440000  *  -0.35180000  *  -1.57450000  *
     8       H          0.32360000  *  -0.55040000  *   1.49160000  *
     9       H         -1.70500000  *  -1.87710000  *  -0.08540000  *
    10       H          2.71900000  *  -0.31300000  *   0.74850000  *
    11       H          2.21300000  *  -0.01990000  *  -0.96120000  *
    12       H         -2.67340000  *  -0.53490000  *  -0.80140000  *
    13       H         -2.17440000  *  -0.46280000  *   0.93460000  *
    14       H          1.92070000  *  -1.63040000  *  -0.19280000  *
    15       H         -1.17100000  *   2.12780000  *  -0.75860000  *
    16       H          0.86460000  *   2.29950000  *   1.07860000  *
 


          CARTESIAN COORDINATES 

    NO.       ATOM         X         Y         Z

     1         C        0.5709   -0.0823    0.5083
     2         C       -0.5619   -0.0911   -0.5314
     3         C        1.9351   -0.5321   -0.0113
     4         C       -1.8534   -0.7738   -0.0868
     5         C        0.4187    1.4526    0.5619
     6         C       -0.5621    1.3398   -0.3199
     7         H       -0.2644   -0.3518   -1.5745
     8         H        0.3236   -0.5504    1.4916
     9         H       -1.7050   -1.8771   -0.0854
    10         H        2.7190   -0.3130    0.7485
    11         H        2.2130   -0.0199   -0.9612
    12         H       -2.6734   -0.5349   -0.8014
    13         H       -2.1744   -0.4628    0.9346
    14         H        1.9207   -1.6304   -0.1928
    15         H       -1.1710    2.1278   -0.7586
    16         H        0.8646    2.2995    1.0786

  H: (PM3): J. J. P. STEWART, J. COMP. CHEM. 10, 209 (1989).
  C: (PM3): J. J. P. STEWART, J. COMP. CHEM. 10, 209 (1989).

           Empirical Formula: C6 H10  =    16 atoms



      MOLECULAR POINT GROUP   :   C1  


      RHF CALCULATION, NO. OF DOUBLY OCCUPIED LEVELS =   17

      Geometry optimization using EF

          DIAGONAL MATRIX USED AS START HESSIAN

 CYCLE:     1 TIME:   0.005 TIME LEFT:  2.00D  GRAD.:   160.633 HEAT: 33.45780
 CYCLE:     2 TIME:   0.006 TIME LEFT:  2.00D  GRAD.:   138.027 HEAT: 29.83910
 CYCLE:     3 TIME:   0.003 TIME LEFT:  2.00D  GRAD.:   142.483 HEAT: 28.89267
 CYCLE:     4 TIME:   0.003 TIME LEFT:  2.00D  GRAD.:   104.738 HEAT: 27.81652
 CYCLE:     5 TIME:   0.003 TIME LEFT:  2.00D  GRAD.:    94.177 HEAT: 27.11324
 CYCLE:     6 TIME:   0.006 TIME LEFT:  2.00D  GRAD.:    35.573 HEAT: 25.11671
 CYCLE:     7 TIME:   0.006 TIME LEFT:  2.00D  GRAD.:    22.488 HEAT: 24.70062
 CYCLE:     8 TIME:   0.003 TIME LEFT:  2.00D  GRAD.:    28.976 HEAT: 24.68661
 CYCLE:     9 TIME:   0.003 TIME LEFT:  2.00D  GRAD.:    25.628 HEAT: 24.50870
 CYCLE:    10 TIME:   0.006 TIME LEFT:  2.00D  GRAD.:    12.439 HEAT: 24.36320
 CYCLE:    11 TIME:   0.006 TIME LEFT:  2.00D  GRAD.:     7.807 HEAT: 24.31791
 CYCLE:    12 TIME:   0.006 TIME LEFT:  2.00D  GRAD.:     6.099 HEAT: 24.29918
 CYCLE:    13 TIME:   0.003 TIME LEFT:  2.00D  GRAD.:     6.445 HEAT: 24.27830
 CYCLE:    14 TIME:   0.003 TIME LEFT:  2.00D  GRAD.:     6.235 HEAT: 24.26610
 CYCLE:    15 TIME:   0.003 TIME LEFT:  2.00D  GRAD.:     6.397 HEAT: 24.25796
 CYCLE:    16 TIME:   0.006 TIME LEFT:  2.00D  GRAD.:     3.553 HEAT: 24.24722
 CYCLE:    17 TIME:   0.003 TIME LEFT:  2.00D  GRAD.:     3.970 HEAT: 24.24225
 CYCLE:    18 TIME:   0.003 TIME LEFT:  2.00D  GRAD.:     2.925 HEAT: 24.23428
 CYCLE:    19 TIME:   0.003 TIME LEFT:  2.00D  GRAD.:     3.613 HEAT: 24.22793
 CYCLE:    20 TIME:   0.003 TIME LEFT:  2.00D  GRAD.:     2.763 HEAT: 24.22180
 CYCLE:    21 TIME:   0.003 TIME LEFT:  2.00D  GRAD.:     3.736 HEAT: 24.21461
 CYCLE:    22 TIME:   0.003 TIME LEFT:  2.00D  GRAD.:     3.791 HEAT: 24.20668
 CYCLE:    23 TIME:   0.004 TIME LEFT:  2.00D  GRAD.:     2.230 HEAT: 24.19988
 CYCLE:    24 TIME:   0.004 TIME LEFT:  2.00D  GRAD.:     1.743 HEAT: 24.19648
 CYCLE:    25 TIME:   0.004 TIME LEFT:  2.00D  GRAD.:     1.734 HEAT: 24.19325
 CYCLE:    26 TIME:   0.003 TIME LEFT:  2.00D  GRAD.:     1.697 HEAT: 24.18888
 CYCLE:    27 TIME:   0.003 TIME LEFT:  2.00D  GRAD.:     1.159 HEAT: 24.18605
 CYCLE:    28 TIME:   0.003 TIME LEFT:  2.00D  GRAD.:     0.889 HEAT: 24.18479
 CYCLE:    29 TIME:   0.003 TIME LEFT:  2.00D  GRAD.:     1.074 HEAT: 24.18308
 CYCLE:    30 TIME:   0.003 TIME LEFT:  2.00D  GRAD.:     1.122 HEAT: 24.18103
 CYCLE:    31 TIME:   0.003 TIME LEFT:  2.00D  GRAD.:     0.727 HEAT: 24.17981
 CYCLE:    32 TIME:   0.003 TIME LEFT:  2.00D  GRAD.:     0.522 HEAT: 24.17926
 CYCLE:    33 TIME:   0.003 TIME LEFT:  2.00D  GRAD.:     0.547 HEAT: 24.17888
 CYCLE:    34 TIME:   0.003 TIME LEFT:  2.00D  GRAD.:     0.562 HEAT: 24.17840
 CYCLE:    35 TIME:   0.003 TIME LEFT:  2.00D  GRAD.:     0.521 HEAT: 24.17757
 CYCLE:    36 TIME:   0.003 TIME LEFT:  2.00D  GRAD.:     0.388 HEAT: 24.17728
 CYCLE:    37 TIME:   0.003 TIME LEFT:  2.00D  GRAD.:     0.388 HEAT: 24.17697
 CYCLE:    38 TIME:   0.003 TIME LEFT:  2.00D  GRAD.:     0.213 HEAT: 24.17687
 CYCLE:    39 TIME:   0.003 TIME LEFT:  2.00D  GRAD.:     0.148 HEAT: 24.17681
 CYCLE:    40 TIME:   0.003 TIME LEFT:  2.00D  GRAD.:     0.160 HEAT: 24.17673
 CYCLE:    41 TIME:   0.003 TIME LEFT:  2.00D  GRAD.:     0.125 HEAT: 24.17670
 CYCLE:    42 TIME:   0.003 TIME LEFT:  2.00D  GRAD.:     0.080 HEAT: 24.17667
 CYCLE:    43 TIME:   0.003 TIME LEFT:  2.00D  GRAD.:     0.061 HEAT: 24.17666
 CYCLE:    44 TIME:   0.003 TIME LEFT:  2.00D  GRAD.:     0.071 HEAT: 24.17665
 CYCLE:    45 TIME:   0.003 TIME LEFT:  2.00D  GRAD.:     0.096 HEAT: 24.17664
 CYCLE:    46 TIME:   0.003 TIME LEFT:  2.00D  GRAD.:     0.088 HEAT: 24.17662
 CYCLE:    47 TIME:   0.003 TIME LEFT:  2.00D  GRAD.:     0.113 HEAT: 24.17656
 CYCLE:    48 TIME:   0.003 TIME LEFT:  2.00D  GRAD.:     0.099 HEAT: 24.17654
 CYCLE:    49 TIME:   0.003 TIME LEFT:  2.00D  GRAD.:     0.079 HEAT: 24.17652
 CYCLE:    50 TIME:   0.003 TIME LEFT:  2.00D  GRAD.:     0.056 HEAT: 24.17651
 CYCLE:    51 TIME:   0.003 TIME LEFT:  2.00D  GRAD.:     0.049 HEAT: 24.17649

     RMS GRADIENT =  0.04879  IS LESS THAN CUTOFF =  0.05000



 -------------------------------------------------------------------------------
pm3  precise nosym
 InChI=1S/C6H10/c1-5-3-4-6(5)2/h3-6H,1-2H3



     GEOMETRY OPTIMISED USING EIGENVECTOR FOLLOWING (EF).     
     SCF FIELD WAS ACHIEVED                                   


                              PM3 CALCULATION
                                                       MOPAC2012 (Version: 13.159M)
                                                       Tue Jun  3 11:51:52 2014
                                                       No. of days left =   5




          FINAL HEAT OF FORMATION =         24.17649 KCAL/MOL =     101.15445 KJ/MOL


          TOTAL ENERGY            =       -864.12089 EV
          ELECTRONIC ENERGY       =      -3816.10738 EV  POINT GROUP:     C1  
          CORE-CORE REPULSION     =       2951.98649 EV
          COSMO AREA              =        135.32 SQUARE ANGSTROMS
          COSMO VOLUME            =        127.52 CUBIC ANGSTROMS

          GRADIENT NORM           =          0.04879
          IONIZATION POTENTIAL    =          9.888935 EV
          HOMO LUMO ENERGIES (EV) =         -9.889  1.062
          NO. OF FILLED LEVELS    =         17
          MOLECULAR WEIGHT        =         82.145

          MOLECULAR DIMENSIONS (Angstroms)

            Atom       Atom       Distance
            H    12    H    10     5.60265
            H     9    H    15     4.12963
            H    11    H    13     2.85678


          SCF CALCULATIONS        =         59
          COMPUTATION TIME        =          0.193 SECONDS




   ATOM   CHEMICAL          X               Y               Z
  NUMBER   SYMBOL      (ANGSTROMS)     (ANGSTROMS)     (ANGSTROMS)
 
     1       C          0.60068007  *  -0.06504403  *   0.52236258  *
     2       C         -0.58591658  *  -0.07055309  *  -0.52746228  *
     3       C          1.92494323  *  -0.55635375  *   0.01091593  *
     4       C         -1.82761557  *  -0.80175403  *  -0.10292470  *
     5       C          0.41824090  *   1.44852703  *   0.54105390  *
     6       C         -0.60738699  *   1.44130524  *  -0.33145111  *
     7       H         -0.26800187  *  -0.37727202  *  -1.54559133  *
     8       H          0.33623242  *  -0.55174381  *   1.48409337  *
     9       H         -1.66269562  *  -1.88684704  *  -0.09969286  *
    10       H          2.72771998  *  -0.34244199  *   0.72806731  *
    11       H          2.19959486  *  -0.08343478  *  -0.94127180  *
    12       H         -2.66068578  *  -0.59215901  *  -0.78600575  *
    13       H         -2.14972671  *  -0.51455816  *   0.90678926  *
    14       H          1.90415311  *  -1.64122772  *  -0.15405805  *
    15       H         -1.25599945  *   2.18618335  *  -0.77181474  *
    16       H          0.96618424  *   2.20388408  *   1.08755648  *

           Empirical Formula: C6 H10  =    16 atoms



      MOLECULAR POINT GROUP   :   C1  


                  EIGENVALUES  
 -40.45940 -30.83005 -28.94716 -22.03107 -21.91878 -17.76551 -16.98038 -15.56984
 -15.44543 -14.09493 -13.77805 -13.21694 -13.03912 -12.29008 -11.36493 -11.34196
  -9.88893   1.06182   3.18348   3.27249   3.37440   3.83443   3.96228   4.06973
   4.23000   4.32720   4.47416   4.56641   4.63793   4.79687   4.92337   5.20316
   5.23805   6.20225


              NET ATOMIC CHARGES AND DIPOLE CONTRIBUTIONS

  ATOM NO.   TYPE          CHARGE      No. of ELECS.   s-Pop       p-Pop       
    1          C          -0.068677        4.0687     1.18898     2.87970
    2          C          -0.068650        4.0687     1.18897     2.87968
    3          C          -0.097642        4.0976     1.13378     2.96386
    4          C          -0.097618        4.0976     1.13378     2.96384
    5          C          -0.158968        4.1590     1.22024     2.93872
    6          C          -0.158944        4.1589     1.22025     2.93870
    7          H           0.077854        0.9221     0.92215
    8          H           0.077875        0.9221     0.92212
    9          H           0.039800        0.9602     0.96020
   10          H           0.040458        0.9595     0.95954
   11          H           0.042315        0.9577     0.95769
   12          H           0.040490        0.9595     0.95951
   13          H           0.042304        0.9577     0.95770
   14          H           0.039847        0.9602     0.96015
   15          H           0.124773        0.8752     0.87523
   16          H           0.124784        0.8752     0.87522
 DIPOLE           X         Y         Z       TOTAL
 POINT-CHG.     0.015    -0.219    -0.016     0.220
 HYBRID        -0.004     0.065     0.005     0.066
 SUM            0.011    -0.154    -0.011     0.155


          ATOMIC ORBITAL ELECTRON POPULATIONS

    Atom      s        px        py        pz   
    1  C   1.18898   0.95137   0.94501   0.98333
    2  C   1.18897   0.95462   0.93946   0.98560
    3  C   1.13378   0.95846   1.00067   1.00473
    4  C   1.13378   0.96466   0.99170   1.00748
    5  C   1.22024   0.98437   0.96618   0.98817
    6  C   1.22025   0.98567   0.96578   0.98725
    7  H   0.92215
    8  H   0.92212
    9  H   0.96020
   10  H   0.95954
   11  H   0.95769
   12  H   0.95951
   13  H   0.95770
   14  H   0.96015
   15  H   0.87523
   16  H   0.87522
 *******************************************************************************
 ** Site#: 14399           For non-commercial use only        Version 13.159M **
 *******************************************************************************
 ** Cite this work as: MOPAC2012, James J. P. Stewart, Stewart Computational  **
 ** Chemistry, Version 13.159M web: HTTP://OpenMOPAC.net  Days remaining:   5 **
 *******************************************************************************
 **                                                                           **
 **                                MOPAC2012                                  **
 **                                                                           **
 *******************************************************************************

                            PM3 CALCULATION RESULTS


 *******************************************************************************
 *  CALCULATION DONE:                                Tue Jun  3 11:51:52 2014  *
 *  PM3      - The PM3 Hamiltonian to be used
 *  OLDGEO   - PREVIOUS GEOMETRY TO BE USED
 *  PRECISE  - CRITERIA TO BE INCREASED BY 100 TIMES
 *  NOSYM    - POINT-GROUP SYMMETRY SET TO C1
 *  T=       - A TIME OF 172800.0 SECONDS REQUESTED
 *  DUMP=N   - RESTART FILE WRITTEN EVERY  7200.000 SECONDS
 *  THERMO   - THERMODYNAMIC QUANTITIES TO BE CALCULATED
 *******************************************************************************
oldgeo thermo nosym precise  pm3

   ATOM   CHEMICAL          X               Y               Z
  NUMBER   SYMBOL      (ANGSTROMS)     (ANGSTROMS)     (ANGSTROMS)
 
     1       C          0.60068007  *  -0.06504403  *   0.52236258  *
     2       C         -0.58591658  *  -0.07055309  *  -0.52746228  *
     3       C          1.92494323  *  -0.55635375  *   0.01091593  *
     4       C         -1.82761557  *  -0.80175403  *  -0.10292470  *
     5       C          0.41824090  *   1.44852703  *   0.54105390  *
     6       C         -0.60738699  *   1.44130524  *  -0.33145111  *
     7       H         -0.26800187  *  -0.37727202  *  -1.54559133  *
     8       H          0.33623242  *  -0.55174381  *   1.48409337  *
     9       H         -1.66269562  *  -1.88684704  *  -0.09969286  *
    10       H          2.72771998  *  -0.34244199  *   0.72806731  *
    11       H          2.19959486  *  -0.08343478  *  -0.94127180  *
    12       H         -2.66068578  *  -0.59215901  *  -0.78600575  *
    13       H         -2.14972671  *  -0.51455816  *   0.90678926  *
    14       H          1.90415311  *  -1.64122772  *  -0.15405805  *
    15       H         -1.25599945  *   2.18618335  *  -0.77181474  *
    16       H          0.96618424  *   2.20388408  *   1.08755648  *
 


          CARTESIAN COORDINATES 

    NO.       ATOM         X         Y         Z

     1         C        0.6007   -0.0650    0.5224
     2         C       -0.5859   -0.0706   -0.5275
     3         C        1.9249   -0.5564    0.0109
     4         C       -1.8276   -0.8018   -0.1029
     5         C        0.4182    1.4485    0.5411
     6         C       -0.6074    1.4413   -0.3315
     7         H       -0.2680   -0.3773   -1.5456
     8         H        0.3362   -0.5517    1.4841
     9         H       -1.6627   -1.8868   -0.0997
    10         H        2.7277   -0.3424    0.7281
    11         H        2.1996   -0.0834   -0.9413
    12         H       -2.6607   -0.5922   -0.7860
    13         H       -2.1497   -0.5146    0.9068
    14         H        1.9042   -1.6412   -0.1541
    15         H       -1.2560    2.1862   -0.7718
    16         H        0.9662    2.2039    1.0876

  H: (PM3): J. J. P. STEWART, J. COMP. CHEM. 10, 209 (1989).
  C: (PM3): J. J. P. STEWART, J. COMP. CHEM. 10, 209 (1989).

           Empirical Formula: C6 H10  =    16 atoms



      MOLECULAR POINT GROUP   :   C1  


      RHF CALCULATION, NO. OF DOUBLY OCCUPIED LEVELS =   17



          HEAT OF FORMATION =      24.176495 KCALS/MOLE


          INTERNAL COORDINATE DERIVATIVES

   NUMBER  ATOM       BOND         ANGLE      DIHEDRAL

     1       C      0.000321    -0.001190    -0.000859
     2       C      0.000873     0.003458     0.002168
     3       C     -0.001658    -0.006877    -0.001872
     4       C     -0.006394     0.008673     0.006956
     5       C      0.006356     0.002338    -0.002472
     6       C      0.000725     0.004759     0.001856
     7       H      0.010058    -0.006640     0.001911
     8       H     -0.001127    -0.003340    -0.003530
     9       H     -0.000230     0.006793     0.003253
    10       H      0.004599    -0.007122     0.007848
    11       H      0.008711    -0.017359    -0.005376
    12       H     -0.000776    -0.005495    -0.000258
    13       H     -0.014968     0.013576     0.008158
    14       H      0.009334    -0.007993    -0.000936
    15       H     -0.015478     0.013433    -0.017304
    16       H     -0.000346     0.002985     0.000456


          GRADIENT NORM =   0.04973


          TIME FOR SCF CALCULATION =    0.00

          TIME FOR DERIVATIVES     =    0.00

          MOLECULAR WEIGHT =   82.14



          ROTATIONAL CONSTANTS IN CM(-1)

          A =    0.17933608   B =    0.10972345   C =    0.07942106



           PRINCIPAL MOMENTS OF INERTIA IN UNITS OF 10**(-40)*GRAM-CM**2

          A =      156.0911   B =      255.1212   C =      352.4603


          ORIENTATION OF MOLECULE IN FORCE CALCULATION

    NO.       ATOM         X         Y         Z

     1          C      -0.7922    0.1149    0.2260
     2          C       0.7922    0.1149    0.2260
     3          C      -1.4434    1.4687    0.2260
     4          C       1.4434   -0.6815    1.3206
     5          C      -0.6732   -0.5627   -1.1346
     6          C       0.6731   -0.5861   -1.1227
     7          H       1.2298    1.1324    0.1553
     8          H      -1.2297   -0.5409    1.0071
     9          H       1.3215   -0.1862    2.2925
    10          H      -2.5205    1.3872    0.0321
    11          H      -1.0198    2.1292   -0.5421
    12          H       2.5192   -0.7969    1.1367
    13          H       1.0146   -1.6886    1.4082
    14          H      -1.3147    1.9663    1.1957
    15          H       1.4481   -0.9518   -1.7824
    16          H      -1.4483   -0.8802   -1.8186


    FIRST DERIVATIVES WILL BE USED IN THE CALCULATION OF SECOND DERIVATIVES

          ESTIMATED TIME TO COMPLETE CALCULATION =        0.83 SECONDS

    FOR POINT-GROUP C1   THERE ARE   1 UNIQUE SYMMETRY FUNCTIONS.

 STEP:   1 TIME =     0.01 SECS, INTEGRAL =      0.01 TIME LEFT: 172799.98
 STEP:   2 TIME =     0.01 SECS, INTEGRAL =      0.03 TIME LEFT: 172799.97
 STEP:   3 TIME =     0.01 SECS, INTEGRAL =      0.04 TIME LEFT: 172799.95
 STEP:   4 TIME =     0.01 SECS, INTEGRAL =      0.06 TIME LEFT: 172799.94
 STEP:   5 TIME =     0.01 SECS, INTEGRAL =      0.07 TIME LEFT: 172799.92
 STEP:   6 TIME =     0.01 SECS, INTEGRAL =      0.08 TIME LEFT: 172799.91
 STEP:   7 TIME =     0.01 SECS, INTEGRAL =      0.10 TIME LEFT: 172799.90
 STEP:   8 TIME =     0.01 SECS, INTEGRAL =      0.11 TIME LEFT: 172799.88
 STEP:   9 TIME =     0.01 SECS, INTEGRAL =      0.13 TIME LEFT: 172799.87
 STEP:  10 TIME =     0.01 SECS, INTEGRAL =      0.14 TIME LEFT: 172799.86
 STEP:  11 TIME =     0.02 SECS, INTEGRAL =      0.16 TIME LEFT: 172799.84
 STEP:  12 TIME =     0.02 SECS, INTEGRAL =      0.17 TIME LEFT: 172799.82
 STEP:  13 TIME =     0.01 SECS, INTEGRAL =      0.19 TIME LEFT: 172799.81
 STEP:  14 TIME =     0.01 SECS, INTEGRAL =      0.20 TIME LEFT: 172799.80
 STEP:  15 TIME =     0.01 SECS, INTEGRAL =      0.21 TIME LEFT: 172799.78
 STEP:  16 TIME =     0.01 SECS, INTEGRAL =      0.23 TIME LEFT: 172799.77
 STEP:  17 TIME =     0.01 SECS, INTEGRAL =      0.24 TIME LEFT: 172799.75
 STEP:  18 TIME =     0.01 SECS, INTEGRAL =      0.26 TIME LEFT: 172799.74
 STEP:  19 TIME =     0.01 SECS, INTEGRAL =      0.27 TIME LEFT: 172799.72
 STEP:  20 TIME =     0.01 SECS, INTEGRAL =      0.29 TIME LEFT: 172799.71
 STEP:  21 TIME =     0.01 SECS, INTEGRAL =      0.30 TIME LEFT: 172799.70
 STEP:  22 TIME =     0.01 SECS, INTEGRAL =      0.32 TIME LEFT: 172799.68
 STEP:  23 TIME =     0.01 SECS, INTEGRAL =      0.33 TIME LEFT: 172799.67
 STEP:  24 TIME =     0.01 SECS, INTEGRAL =      0.34 TIME LEFT: 172799.65
 STEP:  25 TIME =     0.01 SECS, INTEGRAL =      0.36 TIME LEFT: 172799.64
 STEP:  26 TIME =     0.01 SECS, INTEGRAL =      0.37 TIME LEFT: 172799.62
 STEP:  27 TIME =     0.01 SECS, INTEGRAL =      0.38 TIME LEFT: 172799.61
 STEP:  28 TIME =     0.01 SECS, INTEGRAL =      0.40 TIME LEFT: 172799.60
 STEP:  29 TIME =     0.01 SECS, INTEGRAL =      0.41 TIME LEFT: 172799.58
 STEP:  30 TIME =     0.01 SECS, INTEGRAL =      0.43 TIME LEFT: 172799.57
 STEP:  31 TIME =     0.01 SECS, INTEGRAL =      0.44 TIME LEFT: 172799.55
 STEP:  32 TIME =     0.01 SECS, INTEGRAL =      0.46 TIME LEFT: 172799.54
 STEP:  33 TIME =     0.01 SECS, INTEGRAL =      0.47 TIME LEFT: 172799.53
 STEP:  34 TIME =     0.01 SECS, INTEGRAL =      0.48 TIME LEFT: 172799.51
 STEP:  35 TIME =     0.01 SECS, INTEGRAL =      0.50 TIME LEFT: 172799.50
 STEP:  36 TIME =     0.01 SECS, INTEGRAL =      0.51 TIME LEFT: 172799.48
 STEP:  37 TIME =     0.01 SECS, INTEGRAL =      0.53 TIME LEFT: 172799.47
 STEP:  38 TIME =     0.01 SECS, INTEGRAL =      0.54 TIME LEFT: 172799.46
 STEP:  39 TIME =     0.01 SECS, INTEGRAL =      0.55 TIME LEFT: 172799.44
 STEP:  40 TIME =     0.01 SECS, INTEGRAL =      0.57 TIME LEFT: 172799.43
 STEP:  41 TIME =     0.01 SECS, INTEGRAL =      0.58 TIME LEFT: 172799.41
 STEP:  42 TIME =     0.01 SECS, INTEGRAL =      0.60 TIME LEFT: 172799.40
 STEP:  43 TIME =     0.01 SECS, INTEGRAL =      0.61 TIME LEFT: 172799.39
 STEP:  44 TIME =     0.01 SECS, INTEGRAL =      0.62 TIME LEFT: 172799.37
 STEP:  45 TIME =     0.01 SECS, INTEGRAL =      0.64 TIME LEFT: 172799.36
 STEP:  46 TIME =     0.02 SECS, INTEGRAL =      0.65 TIME LEFT: 172799.34
 STEP:  47 TIME =     0.02 SECS, INTEGRAL =      0.67 TIME LEFT: 172799.32
 STEP:  48 TIME =     0.01 SECS, INTEGRAL =      0.69 TIME LEFT: 172799.31

(To convert to Hartree/Bohr^2, multiply by (10^(-21) x N x a0^2)/(4.184 x 627.51) = 0.0642)


           FORCE MATRIX IN MILLIDYNES/ANGSTROM


                  C  1       C  2       C  3       C  4       C  5       C  6
 ------------------------------------------------------------------------------
     C    1  14.399015
     C    2   2.615247  14.397829
     C    3   4.706433   0.498724  14.537528
     C    4   0.498907   4.705179   0.029222  14.537319
     C    5   3.913058   2.229787   0.562871   0.050113  18.374076
     C    6   2.229731   3.912804   0.050362   0.563022  10.396072  18.374051
     H    7   0.422445   4.425026   0.026061   0.428465   0.043472   0.413767
     H    8   4.425078   0.422820   0.428475   0.026149   0.413880   0.043547
     H    9   0.010120   0.451419   0.002070   4.744023   0.006002   0.047578
     H   10   0.452738   0.045225   4.747216   0.005452   0.011169   0.003886
     H   11   0.469110   0.018977   4.731089   0.000850   0.013522   0.002672
     H   12   0.045105   0.452589   0.005440   4.746991   0.003752   0.011407
     H   13   0.019243   0.468499   0.000902   4.732095   0.002462   0.013291
     H   14   0.452649   0.010283   4.744705   0.002169   0.048073   0.006066
     H   15   0.113935   0.341023   0.016438   0.008885   0.424044   5.280857
     H   16   0.341079   0.113818   0.008744   0.016584   5.280632   0.424105


                  H  7       H  8       H  9       H 10       H 11       H 12
 ------------------------------------------------------------------------------
     H    7   4.939364
     H    8   0.022769   4.939292
     H    9   0.028197   0.003604   5.468997
     H   10   0.002353   0.027767   0.000429   5.471849
     H   11   0.018720   0.045115   0.000242   0.571666   5.463796
     H   12   0.027581   0.002356   0.567602   0.001093   0.000367   5.471684
     H   13   0.045011   0.019163   0.570855   0.000356   0.000443   0.571880
     H   14   0.003715   0.027666   0.001043   0.567797   0.570426   0.000477
     H   15   0.005536   0.014107   0.001574   0.001253   0.001405   0.003108
     H   16   0.014293   0.005519   0.002276   0.003065   0.002175   0.001172


                  H 13       H 14       H 15       H 16
 ------------------------------------------------------
     H   13   5.464539
     H   14   0.000250   5.468985
     H   15   0.002140   0.002455   5.666070
     H   16   0.001294   0.001633   0.030379   5.665975


          HEAT OF FORMATION =      24.176495 KCALS/MOLE

          ZERO POINT ENERGY      89.265 KCAL/MOL


           NORMAL COORDINATE ANALYSIS (Total motion = 1 Angstrom)


   Root No.       1         2         3         4         5         6         7         8

                 1 A       2 A       3 A       4 A       5 A       6 A       7 A       8 A   

                 164.6     173.0     185.8     309.8     310.7     383.5     575.8     763.6
  
           1   -0.0005   -0.0040    0.0003   -0.0209   -0.0331    0.0230    0.0082   -0.0172
           2   -0.0036   -0.0034   -0.0062   -0.0414   -0.0144   -0.0131   -0.0279   -0.0024
           3   -0.0042   -0.0025   -0.0253    0.0029   -0.0025    0.0269    0.0301    0.0336
           4   -0.0015   -0.0037   -0.0009   -0.0262   -0.0293    0.0229   -0.0082   -0.0171
           5   -0.0004    0.0017   -0.0169    0.0017   -0.0269   -0.0295    0.0407   -0.0286
           6   -0.0019    0.0082   -0.0191    0.0035    0.0336   -0.0052   -0.0049   -0.0178
           7    0.0088   -0.0073    0.0086    0.0617    0.0046    0.0017    0.0281   -0.0153
           8    0.0006   -0.0049   -0.0042   -0.0018    0.0064   -0.0261   -0.0359    0.0232
           9    0.0053   -0.0032    0.0485    0.0027   -0.0217   -0.0263   -0.0069    0.0090
          10   -0.0116   -0.0003   -0.0088   -0.0138    0.0591    0.0017   -0.0282   -0.0152
          11    0.0018   -0.0059    0.0415    0.0215    0.0031    0.0057    0.0156    0.0064
          12    0.0055    0.0012    0.0258    0.0074    0.0020    0.0366   -0.0329   -0.0239
          13    0.0023    0.0076    0.0007   -0.0079   -0.0084   -0.0214    0.0006    0.0335
          14   -0.0011    0.0039    0.0172   -0.0349    0.0305    0.0366    0.0337   -0.0126
          15   -0.0052   -0.0054   -0.0371   -0.0004   -0.0231    0.0030    0.0015    0.0266
          16    0.0026    0.0076    0.0000   -0.0058   -0.0100   -0.0214   -0.0006    0.0335
          17    0.0014    0.0106   -0.0389    0.0419   -0.0080    0.0193   -0.0185   -0.0289
          18   -0.0030    0.0028   -0.0078   -0.0191    0.0234   -0.0314    0.0281   -0.0056
          19   -0.0048   -0.0063   -0.0005   -0.0545   -0.0559    0.0339   -0.0307   -0.0254
          20    0.0012    0.0033   -0.0185    0.0171   -0.0131   -0.0338    0.0485   -0.0267
          21    0.0018    0.0163   -0.0564    0.0273    0.0326   -0.0128   -0.0242   -0.0604
          22    0.0011   -0.0081   -0.0007   -0.0384   -0.0674    0.0339    0.0308   -0.0255
          23   -0.0042   -0.0066   -0.0360   -0.0297   -0.0211   -0.0094   -0.0480    0.0328
          24   -0.0039   -0.0076   -0.0493    0.0005   -0.0301    0.0350    0.0252    0.0568
          25   -0.1142    0.1671   -0.0094   -0.0033    0.0806   -0.0307   -0.0181   -0.0266
          26   -0.0470    0.0779    0.1017    0.0449   -0.0142    0.0550   -0.0227    0.0430
          27    0.0175   -0.0206   -0.0045   -0.0026    0.0132    0.0089   -0.0135   -0.0441
          28   -0.0265   -0.0249    0.0057    0.0604    0.0022    0.0074    0.0326   -0.0142
          29   -0.0021   -0.0143    0.0144    0.0860    0.0384   -0.0663   -0.0244    0.0416
          30    0.2050    0.0994    0.0575   -0.0209   -0.0209   -0.0444   -0.0328   -0.0066
          31   -0.1213   -0.0783    0.0046    0.1292    0.0255   -0.0020    0.0626    0.0063
          32   -0.0629   -0.0385    0.0345   -0.0220   -0.0220   -0.0551   -0.0816   -0.0072
          33   -0.1208   -0.0712    0.0798    0.0214   -0.0355   -0.0538   -0.0293   -0.0060
          34    0.0091   -0.0344   -0.0088   -0.0159    0.0580    0.0077   -0.0332   -0.0141
          35    0.0898   -0.1613    0.0242    0.0181    0.0772   -0.0026   -0.0131    0.0294
          36    0.0729   -0.1029    0.0373   -0.0016   -0.0573    0.0804   -0.0399   -0.0296
          37    0.0572   -0.1235   -0.0152   -0.0135    0.1304   -0.0014   -0.0633    0.0060
          38   -0.0334    0.0562    0.0496    0.0242   -0.0250    0.0108    0.0246    0.0008
          39   -0.0653    0.1176    0.0861    0.0362    0.0140    0.0755   -0.0822    0.0093
          40    0.1889    0.0816    0.0239    0.0829    0.0214   -0.0301    0.0192   -0.0269
          41    0.0722    0.0374   -0.0578   -0.0262    0.0215    0.0258    0.0028    0.0611
          42   -0.0550   -0.0367    0.0744    0.0128   -0.0321   -0.0501   -0.0268   -0.0087
          43    0.0043    0.0139   -0.0012    0.0065    0.0023   -0.0481    0.0039    0.0465
          44    0.0045    0.0188   -0.0763    0.1170   -0.0176    0.0576   -0.0966    0.1629
          45   -0.0028    0.0056    0.0115   -0.0462    0.0431   -0.0838    0.0772   -0.0977
          46    0.0044    0.0137    0.0026    0.0004    0.0067   -0.0481   -0.0038    0.0467
          47   -0.0023    0.0040    0.0552   -0.0756    0.0858    0.1009    0.1197    0.1743
          48   -0.0070   -0.0123   -0.0569    0.0091   -0.0660    0.0031   -0.0328   -0.0740


   Root No.       9        10        11        12        13        14        15        16

                 9 A      10 A      11 A      12 A      13 A      14 A      15 A      16 A   

                 817.2     826.4     930.7     942.6     955.4     981.7    1029.6    1030.5
  
           1    0.0128    0.0504   -0.0032   -0.0002   -0.0043    0.0051    0.0087   -0.0161
           2    0.0058    0.0206   -0.0030   -0.0001    0.0058    0.0066    0.0062   -0.0019
           3   -0.0299    0.0008   -0.0107   -0.0059   -0.0101   -0.0017   -0.0194    0.0040
           4    0.0138   -0.0502   -0.0033    0.0003    0.0043    0.0047    0.0106    0.0146
           5    0.0277   -0.0109    0.0062   -0.0054   -0.0120    0.0054    0.0195    0.0014
           6    0.0125    0.0174    0.0085   -0.0043   -0.0017   -0.0041    0.0063   -0.0001
           7    0.0083    0.0256   -0.0063    0.0015    0.0077   -0.0218   -0.0041    0.0166
           8   -0.0093   -0.0026   -0.0077   -0.0041   -0.0189   -0.0126    0.0011   -0.0021
           9   -0.0101    0.0026   -0.0178   -0.0175   -0.0186   -0.0007    0.0170   -0.0028
          10    0.0087   -0.0253   -0.0066   -0.0014   -0.0079   -0.0215   -0.0059   -0.0159
          11    0.0026    0.0037    0.0090   -0.0122   -0.0042   -0.0068   -0.0131    0.0009
          12    0.0133   -0.0005    0.0152   -0.0144   -0.0265    0.0110   -0.0115   -0.0017
          13   -0.0237   -0.0005    0.0161   -0.0025   -0.0006   -0.0024   -0.0015    0.0039
          14   -0.0324   -0.0055    0.0156   -0.0198    0.0379    0.0003   -0.0109    0.0092
          15   -0.0054   -0.0126    0.0343    0.0206    0.0138   -0.0065    0.0067    0.0125
          16   -0.0237    0.0000    0.0162    0.0018    0.0002   -0.0024   -0.0019   -0.0037
          17   -0.0144   -0.0073   -0.0172    0.0294   -0.0103    0.0051   -0.0110    0.0065
          18    0.0297   -0.0111   -0.0320   -0.0022    0.0396    0.0030    0.0068    0.0139
          19    0.0307   -0.0444   -0.0508   -0.0117    0.0551    0.1108   -0.0027    0.0409
          20    0.0174   -0.0083    0.0279    0.0054   -0.0354   -0.0429    0.0349   -0.0095
          21   -0.0156    0.0479    0.0392    0.0685   -0.0408   -0.0373    0.1451    0.0071
          22    0.0296    0.0447   -0.0508    0.0154   -0.0519    0.1124   -0.0082   -0.0394
          23    0.0221    0.0439   -0.0119    0.0535   -0.0108    0.0053   -0.0948    0.0254
          24   -0.0054    0.0211   -0.0435    0.0485   -0.0492    0.0578   -0.1138    0.0137
          25    0.0306    0.0455    0.0567   -0.0480   -0.0521    0.0543   -0.0301    0.0196
          26   -0.0638   -0.0067   -0.0694    0.0846    0.0847   -0.0158    0.0711    0.0042
          27    0.0485    0.0129    0.0614   -0.0672   -0.0765    0.0241   -0.0551    0.0003
          28    0.0034    0.0360   -0.0175   -0.0073    0.0010   -0.0301    0.0032    0.0204
          29   -0.0214   -0.1579    0.0583    0.0078   -0.0182    0.1392    0.0117   -0.0892
          30    0.0234    0.0011    0.0232    0.0292    0.0214   -0.0016   -0.0270    0.0056
          31   -0.0281   -0.0648   -0.0039   -0.0325   -0.0199    0.0799    0.0422   -0.0401
          32    0.0522    0.0478    0.0392    0.0717    0.0400   -0.0707   -0.0779    0.0372
          33    0.0246   -0.0015    0.0249    0.0315    0.0193    0.0028   -0.0285    0.0024
          34    0.0038   -0.0355   -0.0173    0.0083   -0.0006   -0.0299    0.0014   -0.0207
          35   -0.0329    0.0932    0.0179    0.0186    0.0281    0.0829    0.0349    0.0528
          36    0.0056   -0.1262   -0.0597    0.0264   -0.0017   -0.1113   -0.0005   -0.0695
          37   -0.0290    0.0644   -0.0010    0.0331    0.0204    0.0797    0.0464    0.0339
          38    0.0111   -0.0294    0.0013   -0.0168   -0.0080   -0.0440   -0.0247   -0.0167
          39   -0.0566    0.0369   -0.0401    0.0791    0.0449    0.0548    0.0832    0.0197
          40    0.0318   -0.0461    0.0612    0.0451    0.0515    0.0541   -0.0310   -0.0150
          41   -0.0783    0.0141   -0.1001   -0.0993   -0.1101   -0.0275    0.0842   -0.0147
          42    0.0234    0.0027    0.0223    0.0278    0.0230   -0.0021   -0.0243    0.0074
          43   -0.0138    0.0385   -0.0649    0.0096    0.0311    0.0126   -0.0556   -0.1776
          44    0.1764    0.0318   -0.0566   -0.1122    0.1394    0.0080    0.0075   -0.0734
          45   -0.0633    0.0136   -0.1053    0.0857   -0.0057    0.0190   -0.0660   -0.1450
          46   -0.0131   -0.0387   -0.0661   -0.0053   -0.0283    0.0127   -0.0369    0.1845
          47    0.1558   -0.0046    0.0574    0.1315   -0.0897   -0.0113    0.0500   -0.0822
          48   -0.1059    0.0314    0.1079   -0.0462    0.1058   -0.0182    0.0181   -0.1484


   Root No.      17        18        19        20        21        22        23        24

                17 A      18 A      19 A      20 A      21 A      22 A      23 A      24 A   

                1041.7    1137.6    1151.7    1153.4    1190.8    1192.1    1228.8    1330.8
  
           1    0.0109    0.0130    0.0163    0.0477    0.0049   -0.0191   -0.0323    0.0099
           2   -0.0006    0.0343   -0.0243    0.0179   -0.0188   -0.0216    0.0155   -0.0333
           3    0.0078   -0.0110    0.0226    0.0196    0.0560   -0.0120   -0.0101   -0.0380
           4   -0.0109   -0.0125    0.0266   -0.0425   -0.0043   -0.0194   -0.0325    0.0097
           5    0.0067   -0.0297   -0.0323   -0.0022    0.0566   -0.0014    0.0170    0.0111
           6    0.0040    0.0212    0.0001    0.0267    0.0165    0.0251   -0.0066    0.0491
           7   -0.0106   -0.0071   -0.0103   -0.0143   -0.0025    0.0052    0.0121    0.0046
           8   -0.0012   -0.0328    0.0269    0.0015    0.0052    0.0147   -0.0004   -0.0068
           9   -0.0077    0.0138   -0.0164   -0.0125   -0.0116    0.0002   -0.0023    0.0065
          10    0.0108    0.0069   -0.0133    0.0115    0.0024    0.0053    0.0122    0.0045
          11   -0.0057    0.0309    0.0303   -0.0042   -0.0130    0.0082    0.0017   -0.0090
          12   -0.0058   -0.0185   -0.0101   -0.0088   -0.0021   -0.0122    0.0017    0.0013
          13    0.0008    0.0010   -0.0107    0.0036    0.0064    0.0155   -0.0018   -0.0098
          14    0.0175   -0.0063   -0.0019   -0.0096   -0.0085   -0.0077    0.0153    0.0170
          15   -0.0215    0.0007   -0.0035    0.0060   -0.0417   -0.0203    0.0369    0.0292
          16   -0.0009   -0.0012   -0.0096   -0.0060   -0.0070    0.0153   -0.0018   -0.0098
          17   -0.0278    0.0044   -0.0008    0.0106   -0.0293    0.0110   -0.0206   -0.0136
          18    0.0016   -0.0046    0.0043   -0.0032   -0.0324    0.0172   -0.0340   -0.0308
          19   -0.1276    0.1143    0.0495   -0.0123    0.1895    0.1414    0.1269    0.0095
          20    0.0659   -0.0772   -0.0315   -0.0250   -0.0262   -0.0760   -0.0500    0.0033
          21    0.1320    0.1305    0.1764   -0.1451    0.0456   -0.0241    0.0836   -0.0673
          22    0.1267   -0.1144    0.0468    0.0225   -0.1953    0.1356    0.1273    0.0092
          23    0.0673    0.1489   -0.1361   -0.1365    0.0535   -0.0232   -0.0977    0.0570
          24    0.1299    0.0130   -0.0528   -0.1211    0.0025    0.0759   -0.0095    0.0371
          25   -0.0366   -0.0278    0.0045   -0.0420   -0.0031   -0.0272    0.0159   -0.0644
          26    0.0320    0.0065   -0.0111    0.0280    0.0231    0.0228   -0.0269    0.0811
          27   -0.0287   -0.0114    0.0108   -0.0316   -0.0173   -0.0240    0.0204   -0.0588
          28   -0.0176   -0.0052   -0.0198   -0.0217   -0.0124    0.0065    0.0219   -0.0080
          29    0.0728    0.0217    0.0546    0.0814    0.0262   -0.0246   -0.0877    0.0814
          30    0.0092   -0.0104    0.0189    0.0077    0.0258    0.0046   -0.0059    0.0054
          31    0.0163    0.0798   -0.0527    0.0161   -0.0405   -0.0277    0.0117   -0.0475
          32    0.0105   -0.1199    0.0961    0.0095    0.0687    0.0392   -0.0153    0.0463
          33    0.0163   -0.0125    0.0193    0.0095    0.0240    0.0034   -0.0123    0.0158
          34    0.0181    0.0046   -0.0245    0.0166    0.0127    0.0069    0.0219   -0.0078
          35   -0.0364   -0.0210    0.0257   -0.0369    0.0061   -0.0186   -0.0469    0.0423
          36    0.0659    0.0100   -0.0698    0.0559    0.0366    0.0187    0.0743   -0.0675
          37   -0.0167   -0.0808   -0.0467   -0.0275    0.0417   -0.0271    0.0112   -0.0471
          38    0.0074    0.0612    0.0384    0.0114   -0.0218    0.0201    0.0013    0.0145
          39    0.0182   -0.1053   -0.0876   -0.0072    0.0715   -0.0319    0.0188   -0.0454
          40    0.0359    0.0283   -0.0057    0.0419    0.0040   -0.0270    0.0161   -0.0652
          41   -0.0414   -0.0136   -0.0053   -0.0443   -0.0293    0.0320   -0.0318    0.0961
          42    0.0087   -0.0016    0.0018    0.0043    0.0090   -0.0040    0.0096   -0.0313
          43   -0.0376   -0.0175    0.0381   -0.0630    0.0315   -0.1073    0.0862    0.0561
          44    0.0362   -0.0200    0.0200   -0.0377    0.0040   -0.0526    0.0293    0.0111
          45   -0.0772   -0.0097    0.0488   -0.0404   -0.0084   -0.0915    0.0409    0.0340
          46    0.0378    0.0183    0.0227    0.0698   -0.0264   -0.1080    0.0865    0.0563
          47   -0.0834    0.0034   -0.0246   -0.0165   -0.0110    0.0426   -0.0157   -0.0210
          48   -0.0166   -0.0230   -0.0314   -0.0629   -0.0061    0.0962   -0.0479   -0.0290


   Root No.      25        26        27        28        29        30        31        32

                25 A      26 A      27 A      28 A      29 A      30 A      31 A      32 A   

                1354.2    1398.1    1398.4    1407.5    1408.0    1425.0    1454.3    1778.5
  
           1    0.0238    0.0031   -0.0033   -0.0028    0.0008    0.0186   -0.0417   -0.0046
           2   -0.0207   -0.0066    0.0052    0.0040    0.0012   -0.0342    0.0534    0.0153
           3   -0.0175   -0.0028    0.0017    0.0011    0.0011   -0.0178    0.0196    0.0181
           4   -0.0240    0.0031    0.0034   -0.0006   -0.0030    0.0186    0.0417    0.0046
           5   -0.0021   -0.0016   -0.0017    0.0005    0.0015   -0.0057   -0.0155    0.0056
           6   -0.0277    0.0071    0.0053   -0.0032   -0.0028    0.0379    0.0545    0.0230
           7    0.0073   -0.0176    0.0153   -0.0179    0.0062   -0.0229    0.0239    0.0017
           8   -0.0191   -0.0002    0.0054   -0.0146   -0.0008    0.0451   -0.0466   -0.0058
           9    0.0014    0.0155   -0.0144   -0.0244    0.0069   -0.0002   -0.0022   -0.0030
          10   -0.0072   -0.0178   -0.0155   -0.0034   -0.0183   -0.0229   -0.0239   -0.0017
          11    0.0124   -0.0125   -0.0146    0.0003    0.0129    0.0268    0.0256    0.0010
          12   -0.0144   -0.0087   -0.0040    0.0097    0.0249   -0.0363   -0.0389   -0.0065
          13   -0.0040   -0.0009    0.0006    0.0004    0.0000   -0.0055    0.0090   -0.2104
          14    0.0105    0.0008   -0.0013   -0.0002   -0.0002    0.0055   -0.0150    0.0032
          15    0.0163    0.0012   -0.0017   -0.0003   -0.0002    0.0074   -0.0183   -0.0032
          16    0.0041   -0.0009   -0.0006    0.0002    0.0004   -0.0055   -0.0090    0.2104
          17    0.0071   -0.0005   -0.0006    0.0001    0.0001   -0.0027   -0.0059   -0.0044
          18    0.0184   -0.0014   -0.0021    0.0004    0.0002   -0.0087   -0.0228    0.0006
          19    0.0366   -0.0010   -0.0109   -0.0066    0.0005   -0.0159   -0.0646    0.0168
          20   -0.0251   -0.0012    0.0035    0.0039    0.0007    0.0044    0.0240    0.0041
          21    0.0310   -0.0079   -0.0060    0.0027    0.0088   -0.0446   -0.0467   -0.0296
          22   -0.0367   -0.0010    0.0109   -0.0034   -0.0061   -0.0163    0.0647   -0.0168
          23    0.0394    0.0057   -0.0069   -0.0052    0.0033    0.0390   -0.0521   -0.0264
          24   -0.0023    0.0057   -0.0007   -0.0071   -0.0016    0.0228   -0.0082   -0.0142
          25    0.0738    0.1868    0.1766    0.0128    0.0434    0.0279    0.0243   -0.0038
          26   -0.0915    0.0651    0.0783    0.0532    0.1643   -0.0751   -0.0630    0.0033
          27    0.0580   -0.0152   -0.0219   -0.0219   -0.0674    0.0301    0.0208   -0.0080
          28   -0.0150    0.0290   -0.0270   -0.0300    0.0086   -0.0067    0.0077   -0.0003
          29    0.1223   -0.0440    0.0307   -0.1176    0.0422   -0.1075    0.0732    0.0027
          30    0.0205   -0.1748    0.1655    0.1805   -0.0534    0.0260   -0.0057    0.0010
          31   -0.0586   -0.0331    0.0373    0.2266   -0.0694    0.0980   -0.0685   -0.0031
          32    0.0685    0.0565   -0.0682    0.1028   -0.0167   -0.0860    0.0716    0.0050
          33    0.0305    0.0375   -0.0462    0.2130   -0.0510   -0.0299    0.0350    0.0029
          34    0.0152    0.0299    0.0280   -0.0076   -0.0322   -0.0070   -0.0077    0.0003
          35   -0.0548    0.1140    0.1146   -0.0468   -0.2231   -0.0852   -0.0475   -0.0008
          36    0.1114    0.1378    0.1220   -0.0076   -0.0099    0.0721    0.0561    0.0028
          37    0.0590   -0.0318   -0.0362    0.0509    0.2322    0.0995    0.0689    0.0031
          38   -0.0158    0.0021    0.0020   -0.0281   -0.1156   -0.0271   -0.0139   -0.0006
          39    0.0730   -0.0689   -0.0832   -0.0638   -0.2035    0.0870    0.0783    0.0057
          40   -0.0733    0.1865   -0.1759    0.0462   -0.0110    0.0282   -0.0246    0.0038
          41    0.0995    0.0494   -0.0626    0.1551   -0.0307   -0.0677    0.0534   -0.0085
          42   -0.0394   -0.0445    0.0512   -0.0969    0.0193    0.0427   -0.0384   -0.0020
          43   -0.0187    0.0022    0.0020   -0.0005   -0.0008    0.0126    0.0186    0.1132
          44    0.0014    0.0000   -0.0003    0.0003   -0.0008    0.0002   -0.0012   -0.0790
          45   -0.0026    0.0022    0.0005   -0.0006   -0.0008    0.0119    0.0039   -0.1521
          46    0.0182    0.0021   -0.0019   -0.0009    0.0000    0.0126   -0.0186   -0.1132
          47   -0.0027   -0.0017    0.0005    0.0005    0.0005   -0.0095    0.0039   -0.0764
          48   -0.0001   -0.0013    0.0001    0.0010   -0.0004   -0.0072    0.0013   -0.1534


   Root No.      33        34        35        36        37        38        39        40

                33 A      34 A      35 A      36 A      37 A      38 A      39 A      40 A   

                2954.4    2961.3    3080.0    3080.1    3083.8    3083.9    3178.7    3178.8
  
           1    0.0133   -0.0144   -0.0004    0.0005    0.0001   -0.0002   -0.0002   -0.0001
           2    0.0203   -0.0204   -0.0006    0.0006   -0.0002   -0.0001    0.0002    0.0000
           3   -0.0251    0.0244    0.0008   -0.0008    0.0003   -0.0001    0.0001    0.0001
           4   -0.0132   -0.0145   -0.0004   -0.0005   -0.0002    0.0001    0.0001   -0.0002
           5   -0.0320   -0.0320   -0.0011   -0.0009    0.0000   -0.0003   -0.0001    0.0000
           6    0.0016    0.0021    0.0000    0.0000    0.0001    0.0000    0.0001   -0.0002
           7   -0.0012    0.0010   -0.0133    0.0147   -0.0006   -0.0396   -0.0086   -0.0027
           8   -0.0003    0.0004   -0.0068    0.0075   -0.0003   -0.0192    0.0168    0.0052
           9    0.0014   -0.0012    0.0189   -0.0210   -0.0009   -0.0346    0.0003    0.0001
          10    0.0012    0.0010   -0.0149   -0.0132   -0.0394    0.0009    0.0027   -0.0086
          11    0.0013    0.0012   -0.0214   -0.0192    0.0168   -0.0002   -0.0030    0.0096
          12    0.0006    0.0004   -0.0062   -0.0057    0.0359   -0.0007    0.0043   -0.0137
          13    0.0008   -0.0001    0.0000    0.0000    0.0000   -0.0002    0.0000   -0.0001
          14   -0.0001   -0.0001   -0.0001    0.0001    0.0000    0.0002    0.0000    0.0000
          15   -0.0001    0.0006    0.0000    0.0000    0.0000    0.0001    0.0000   -0.0001
          16   -0.0008   -0.0001    0.0000    0.0000   -0.0002    0.0000   -0.0001    0.0000
          17    0.0000   -0.0005    0.0000    0.0000    0.0000    0.0000    0.0000    0.0000
          18   -0.0001   -0.0003    0.0001    0.0001   -0.0002    0.0000    0.0000    0.0001
          19    0.1692    0.1740    0.0045    0.0034   -0.0006    0.0012    0.0000    0.0005
          20    0.3885    0.3895    0.0125    0.0120    0.0015    0.0014    0.0006    0.0023
          21   -0.0247   -0.0243   -0.0021   -0.0023    0.0007   -0.0002    0.0001   -0.0006
          22   -0.1705    0.1728    0.0042   -0.0039    0.0011   -0.0006    0.0004    0.0003
          23   -0.2504    0.2470    0.0080   -0.0098    0.0009    0.0004    0.0014    0.0013
          24    0.3018   -0.2983   -0.0079    0.0092   -0.0010   -0.0016   -0.0010   -0.0013
          25    0.0025    0.0021   -0.0246   -0.0222    0.0358   -0.0005    0.0108   -0.0346
          26   -0.0056   -0.0053    0.0535    0.0488   -0.2030    0.0037   -0.0378    0.1212
          27   -0.0075   -0.0070    0.1166    0.1062   -0.3747    0.0069   -0.0660    0.2114
          28    0.0067   -0.0100    0.0949   -0.1047    0.0079    0.4439    0.2434    0.0756
          29    0.0025   -0.0026    0.0068   -0.0075    0.0007    0.0379    0.0326    0.0101
          30    0.0017   -0.0022    0.0282   -0.0312    0.0011    0.0667    0.0449    0.0140
          31    0.0069   -0.0073    0.0859   -0.0954   -0.0010   -0.0090   -0.1025   -0.0318
          32    0.0079   -0.0063    0.1313   -0.1457   -0.0011    0.0066   -0.1361   -0.0422
          33   -0.0118    0.0101   -0.1539    0.1707    0.0008   -0.0374    0.1742    0.0540
          34   -0.0065   -0.0099    0.1051    0.0930    0.4438   -0.0091   -0.0757    0.2421
          35   -0.0001    0.0003   -0.0215   -0.0193   -0.0345    0.0008    0.0057   -0.0184
          36    0.0030    0.0035   -0.0249   -0.0222   -0.0716    0.0015    0.0167   -0.0535
          37   -0.0069   -0.0075    0.0965    0.0866   -0.0080   -0.0004    0.0324   -0.1034
          38   -0.0140   -0.0120    0.2235    0.2003    0.0359   -0.0019    0.0690   -0.2201
          39   -0.0005   -0.0008   -0.0185   -0.0167    0.0166   -0.0003   -0.0027    0.0086
          40   -0.0026    0.0021   -0.0228    0.0254    0.0010    0.0387   -0.0363   -0.0113
          41   -0.0028    0.0025   -0.0564    0.0632    0.0041    0.1852   -0.1006   -0.0313
          42   -0.0088    0.0081   -0.0996    0.1117    0.0085    0.3852   -0.2228   -0.0694
          43   -0.0028    0.0024    0.0002   -0.0002   -0.0002    0.0002    0.0007    0.0005
          44    0.0012   -0.0018   -0.0001    0.0000    0.0000   -0.0001   -0.0003   -0.0003
          45    0.0026   -0.0017   -0.0002    0.0002   -0.0001   -0.0001   -0.0005   -0.0006
          46    0.0028    0.0025    0.0002    0.0002    0.0002   -0.0002    0.0000    0.0009
          47    0.0014    0.0003    0.0001    0.0001    0.0000    0.0001    0.0001    0.0004
          48    0.0025    0.0025    0.0002    0.0001    0.0001    0.0001    0.0001    0.0008


   Root No.      41        42

                41 A      42 A   

                3194.2    3214.7
  
           1    0.0004    0.0014
           2   -0.0001   -0.0006
           3   -0.0005   -0.0015
           4    0.0005   -0.0014
           5    0.0004   -0.0008
           6    0.0004   -0.0013
           7    0.0000    0.0000
           8    0.0000    0.0000
           9    0.0000    0.0000
          10    0.0000    0.0000
          11    0.0000    0.0000
          12    0.0000    0.0000
          13   -0.0277    0.0355
          14   -0.0113    0.0116
          15   -0.0242    0.0251
          16   -0.0276   -0.0355
          17    0.0129    0.0136
          18    0.0234    0.0242
          19   -0.0014    0.0006
          20   -0.0025    0.0023
          21    0.0002   -0.0001
          22   -0.0014   -0.0006
          23   -0.0016   -0.0015
          24    0.0019    0.0018
          25    0.0002   -0.0001
          26   -0.0005    0.0001
          27   -0.0010    0.0004
          28   -0.0012   -0.0006
          29   -0.0002    0.0001
          30   -0.0003    0.0000
          31    0.0003    0.0002
          32    0.0004    0.0001
          33   -0.0005   -0.0001
          34   -0.0012    0.0006
          35    0.0002   -0.0001
          36    0.0003    0.0001
          37    0.0004   -0.0002
          38    0.0007   -0.0002
          39    0.0000   -0.0001
          40    0.0002    0.0000
          41    0.0004    0.0003
          42    0.0009    0.0003
          43    0.3254    0.3221
          44   -0.1536   -0.1519
          45   -0.2776   -0.2742
          46    0.3260   -0.3215
          47    0.1340   -0.1318
          48    0.2881   -0.2838


           MASS-WEIGHTED COORDINATE ANALYSIS (NORMAL COORDINATES)


   Root No.       1         2         3         4         5         6         7         8

                 1 A       2 A       3 A       4 A       5 A       6 A       7 A       8 A   

                 164.6     173.0     185.8     309.8     310.7     383.5     575.8     763.6
  
           1   -0.0043   -0.0365    0.0027   -0.1622   -0.2619    0.1907    0.0651   -0.1320
           2   -0.0306   -0.0307   -0.0514   -0.3206   -0.1139   -0.1089   -0.2222   -0.0186
           3   -0.0359   -0.0227   -0.2087    0.0228   -0.0194    0.2230    0.2397    0.2585
           4   -0.0125   -0.0334   -0.0077   -0.2027   -0.2319    0.1905   -0.0651   -0.1316
           5   -0.0038    0.0152   -0.1395    0.0131   -0.2126   -0.2445    0.3236   -0.2203
           6   -0.0160    0.0745   -0.1573    0.0274    0.2655   -0.0428   -0.0388   -0.1371
           7    0.0753   -0.0659    0.0710    0.4779    0.0365    0.0140    0.2235   -0.1174
           8    0.0055   -0.0441   -0.0343   -0.0142    0.0508   -0.2170   -0.2853    0.1783
           9    0.0452   -0.0295    0.3997    0.0206   -0.1719   -0.2187   -0.0547    0.0690
          10   -0.0991   -0.0027   -0.0725   -0.1069    0.4674    0.0138   -0.2241   -0.1171
          11    0.0155   -0.0539    0.3414    0.1670    0.0246    0.0477    0.1237    0.0495
          12    0.0468    0.0105    0.2122    0.0572    0.0159    0.3043   -0.2620   -0.1840
          13    0.0197    0.0691    0.0060   -0.0613   -0.0666   -0.1775    0.0050    0.2579
          14   -0.0098    0.0351    0.1416   -0.2702    0.2411    0.3043    0.2682   -0.0969
          15   -0.0446   -0.0487   -0.3054   -0.0034   -0.1827    0.0245    0.0121    0.2050
          16    0.0223    0.0686   -0.0002   -0.0449   -0.0787   -0.1775   -0.0044    0.2579
          17    0.0117    0.0960   -0.3206    0.3250   -0.0629    0.1605   -0.1475   -0.2228
          18   -0.0259    0.0254   -0.0646   -0.1481    0.1848   -0.2610    0.2232   -0.0427
          19   -0.0119   -0.0166   -0.0011   -0.1224   -0.1280    0.0816   -0.0707   -0.0566
          20    0.0029    0.0087   -0.0442    0.0384   -0.0300   -0.0813    0.1116   -0.0596
          21    0.0045    0.0429   -0.1345    0.0613    0.0746   -0.0309   -0.0557   -0.1347
          22    0.0029   -0.0213   -0.0016   -0.0862   -0.1544    0.0815    0.0709   -0.0570
          23   -0.0105   -0.0174   -0.0857   -0.0666   -0.0483   -0.0226   -0.1106    0.0730
          24   -0.0096   -0.0198   -0.1176    0.0010   -0.0690    0.0841    0.0581    0.1266
          25   -0.2838    0.4391   -0.0225   -0.0073    0.1847   -0.0738   -0.0417   -0.0593
          26   -0.1167    0.2048    0.2425    0.1007   -0.0326    0.1322   -0.0522    0.0958
          27    0.0436   -0.0542   -0.0108   -0.0059    0.0302    0.0213   -0.0311   -0.0984
          28   -0.0659   -0.0654    0.0136    0.1355    0.0050    0.0178    0.0752   -0.0317
          29   -0.0053   -0.0376    0.0344    0.1930    0.0880   -0.1595   -0.0561    0.0929
          30    0.5092    0.2611    0.1372   -0.0468   -0.0479   -0.1068   -0.0757   -0.0147
          31   -0.3013   -0.2057    0.0109    0.2901    0.0584   -0.0047    0.1442    0.0140
          32   -0.1562   -0.1012    0.0822   -0.0493   -0.0505   -0.1324   -0.1881   -0.0160
          33   -0.3002   -0.1871    0.1904    0.0480   -0.0813   -0.1294   -0.0675   -0.0134
          34    0.0227   -0.0903   -0.0209   -0.0356    0.1328    0.0184   -0.0764   -0.0314
          35    0.2231   -0.4239    0.0578    0.0406    0.1769   -0.0063   -0.0302    0.0655
          36    0.1812   -0.2703    0.0889   -0.0035   -0.1313    0.1934   -0.0918   -0.0660
          37    0.1420   -0.3243   -0.0362   -0.0303    0.2987   -0.0033   -0.1458    0.0134
          38   -0.0829    0.1475    0.1182    0.0543   -0.0574    0.0261    0.0567    0.0018
          39   -0.1623    0.3090    0.2054    0.0813    0.0321    0.1816   -0.1893    0.0208
          40    0.4691    0.2143    0.0570    0.1861    0.0491   -0.0723    0.0442   -0.0599
          41    0.1793    0.0984   -0.1377   -0.0589    0.0493    0.0621    0.0066    0.1363
          42   -0.1367   -0.0964    0.1774    0.0288   -0.0735   -0.1204   -0.0617   -0.0195
          43    0.0106    0.0365   -0.0027    0.0147    0.0053   -0.1157    0.0090    0.1037
          44    0.0112    0.0495   -0.1819    0.2626   -0.0404    0.1385   -0.2225    0.3634
          45   -0.0068    0.0147    0.0275   -0.1036    0.0987   -0.2015    0.1779   -0.2178
          46    0.0109    0.0361    0.0063    0.0009    0.0154   -0.1157   -0.0087    0.1041
          47   -0.0056    0.0105    0.1317   -0.1697    0.1965    0.2428    0.2757    0.3887
          48   -0.0174   -0.0324   -0.1356    0.0205   -0.1511    0.0075   -0.0756   -0.1651


   Root No.       9        10        11        12        13        14        15        16

                 9 A      10 A      11 A      12 A      13 A      14 A      15 A      16 A   

                 817.2     826.4     930.7     942.6     955.4     981.7    1029.6    1030.5
  
           1    0.1070    0.4170   -0.0302   -0.0020   -0.0386    0.0505    0.0879   -0.1366
           2    0.0485    0.1703   -0.0277   -0.0011    0.0518    0.0651    0.0628   -0.0160
           3   -0.2493    0.0067   -0.0996   -0.0586   -0.0894   -0.0167   -0.1953    0.0336
           4    0.1154   -0.4152   -0.0308    0.0026    0.0387    0.0469    0.1063    0.1241
           5    0.2312   -0.0906    0.0582   -0.0529   -0.1070    0.0536    0.1963    0.0119
           6    0.1045    0.1440    0.0795   -0.0426   -0.0147   -0.0407    0.0631   -0.0012
           7    0.0691    0.2119   -0.0588    0.0151    0.0685   -0.2158   -0.0408    0.1406
           8   -0.0778   -0.0217   -0.0722   -0.0402   -0.1677   -0.1248    0.0114   -0.0182
           9   -0.0845    0.0217   -0.1666   -0.1722   -0.1656   -0.0067    0.1705   -0.0238
          10    0.0728   -0.2094   -0.0613   -0.0139   -0.0699   -0.2135   -0.0596   -0.1348
          11    0.0213    0.0308    0.0843   -0.1202   -0.0371   -0.0674   -0.1319    0.0079
          12    0.1110   -0.0041    0.1418   -0.1421   -0.2355    0.1090   -0.1158   -0.0145
          13   -0.1982   -0.0039    0.1504   -0.0249   -0.0053   -0.0239   -0.0150    0.0334
          14   -0.2702   -0.0452    0.1458   -0.1949    0.3370    0.0034   -0.1093    0.0778
          15   -0.0452   -0.1040    0.3199    0.2030    0.1230   -0.0649    0.0676    0.1064
          16   -0.1981   -0.0001    0.1517    0.0176    0.0020   -0.0242   -0.0187   -0.0313
          17   -0.1202   -0.0602   -0.1602    0.2896   -0.0919    0.0508   -0.1109    0.0548
          18    0.2483   -0.0920   -0.2986   -0.0220    0.3518    0.0301    0.0680    0.1179
          19    0.0742   -0.1064   -0.1374   -0.0334    0.1419    0.3184   -0.0079    0.1005
          20    0.0421   -0.0200    0.0755    0.0155   -0.0912   -0.1233    0.1015   -0.0233
          21   -0.0376    0.1149    0.1061    0.1956   -0.1051   -0.1073    0.4224    0.0175
          22    0.0716    0.1071   -0.1374    0.0440   -0.1338    0.3229   -0.0239   -0.0970
          23    0.0535    0.1052   -0.0321    0.1528   -0.0277    0.0152   -0.2760    0.0624
          24   -0.0130    0.0505   -0.1178    0.1386   -0.1266    0.1662   -0.3312    0.0336
          25    0.0740    0.1092    0.1534   -0.1372   -0.1343    0.1561   -0.0875    0.0481
          26   -0.1543   -0.0160   -0.1876    0.2416    0.2181   -0.0455    0.2070    0.0104
          27    0.1174    0.0308    0.1662   -0.1918   -0.1972    0.0693   -0.1605    0.0008
          28    0.0082    0.0863   -0.0473   -0.0209    0.0024   -0.0865    0.0093    0.0500
          29   -0.0518   -0.3788    0.1577    0.0222   -0.0468    0.4001    0.0341   -0.2192
          30    0.0566    0.0025    0.0627    0.0835    0.0550   -0.0045   -0.0785    0.0139
          31   -0.0678   -0.1555   -0.0105   -0.0929   -0.0513    0.2296    0.1228   -0.0987
          32    0.1261    0.1147    0.1060    0.2047    0.1030   -0.2033   -0.2267    0.0915
          33    0.0595   -0.0037    0.0672    0.0899    0.0498    0.0079   -0.0830    0.0059
          34    0.0092   -0.0853   -0.0467    0.0238   -0.0017   -0.0858    0.0040   -0.0508
          35   -0.0795    0.2235    0.0483    0.0531    0.0724    0.2383    0.1015    0.1297
          36    0.0135   -0.3026   -0.1615    0.0755   -0.0043   -0.3199   -0.0014   -0.1709
          37   -0.0700    0.1544   -0.0028    0.0946    0.0527    0.2289    0.1352    0.0833
          38    0.0267   -0.0704    0.0036   -0.0479   -0.0207   -0.1265   -0.0718   -0.0411
          39   -0.1369    0.0885   -0.1085    0.2259    0.1157    0.1574    0.2422    0.0484
          40    0.0769   -0.1104    0.1655    0.1288    0.1326    0.1555   -0.0903   -0.0369
          41   -0.1892    0.0338   -0.2708   -0.2835   -0.2837   -0.0790    0.2450   -0.0361
          42    0.0565    0.0065    0.0602    0.0793    0.0593   -0.0060   -0.0708    0.0182
          43   -0.0335    0.0924   -0.1755    0.0273    0.0800    0.0361   -0.1620   -0.4366
          44    0.4265    0.0764   -0.1532   -0.3205    0.3591    0.0229    0.0218   -0.1803
          45   -0.1531    0.0327   -0.2848    0.2447   -0.0147    0.0546   -0.1922   -0.3563
          46   -0.0317   -0.0928   -0.1787   -0.0151   -0.0728    0.0364   -0.1075    0.4535
          47    0.3767   -0.0111    0.1553    0.3755   -0.2311   -0.0323    0.1457   -0.2020
          48   -0.2560    0.0754    0.2920   -0.1319    0.2727   -0.0522    0.0528   -0.3648


   Root No.      17        18        19        20        21        22        23        24

                17 A      18 A      19 A      20 A      21 A      22 A      23 A      24 A   

                1041.7    1137.6    1151.7    1153.4    1190.8    1192.1    1228.8    1330.8
  
           1    0.1008    0.1039    0.1382    0.4009    0.0350   -0.1696   -0.2738    0.0847
           2   -0.0054    0.2745   -0.2061    0.1502   -0.1344   -0.1912    0.1315   -0.2839
           3    0.0718   -0.0875    0.1917    0.1646    0.3995   -0.1067   -0.0851   -0.3243
           4   -0.1009   -0.1001    0.2259   -0.3575   -0.0309   -0.1721   -0.2753    0.0829
           5    0.0621   -0.2371   -0.2741   -0.0183    0.4044   -0.0127    0.1443    0.0947
           6    0.0371    0.1696    0.0010    0.2247    0.1179    0.2227   -0.0558    0.4185
           7   -0.0983   -0.0567   -0.0876   -0.1202   -0.0175    0.0461    0.1025    0.0392
           8   -0.0110   -0.2624    0.2277    0.0123    0.0371    0.1300   -0.0034   -0.0577
           9   -0.0717    0.1107   -0.1387   -0.1051   -0.0831    0.0019   -0.0197    0.0555
          10    0.0999    0.0550   -0.1127    0.0966    0.0170    0.0473    0.1031    0.0384
          11   -0.0524    0.2474    0.2570   -0.0353   -0.0927    0.0728    0.0145   -0.0771
          12   -0.0532   -0.1482   -0.0859   -0.0739   -0.0149   -0.1081    0.0144    0.0115
          13    0.0078    0.0082   -0.0908    0.0306    0.0455    0.1376   -0.0150   -0.0838
          14    0.1622   -0.0507   -0.0159   -0.0807   -0.0609   -0.0681    0.1298    0.1447
          15   -0.1990    0.0059   -0.0294    0.0502   -0.2977   -0.1799    0.3120    0.2492
          16   -0.0083   -0.0100   -0.0816   -0.0506   -0.0501    0.1358   -0.0149   -0.0836
          17   -0.2573    0.0350   -0.0071    0.0894   -0.2094    0.0977   -0.1740   -0.1156
          18    0.0148   -0.0369    0.0369   -0.0270   -0.2314    0.1527   -0.2880   -0.2623
          19   -0.3421    0.2646    0.1216   -0.0299    0.3919    0.3630    0.3112    0.0234
          20    0.1768   -0.1788   -0.0774   -0.0610   -0.0541   -0.1953   -0.1227    0.0081
          21    0.3541    0.3023    0.4334   -0.3536    0.0943   -0.0620    0.2050   -0.1661
          22    0.3398   -0.2648    0.1149    0.0548   -0.4039    0.3482    0.3122    0.0226
          23    0.1805    0.3447   -0.3343   -0.3326    0.1106   -0.0597   -0.2397    0.1407
          24    0.3483    0.0301   -0.1296   -0.2950    0.0051    0.1950   -0.0233    0.0917
          25   -0.0981   -0.0643    0.0110   -0.1022   -0.0064   -0.0698    0.0391   -0.1589
          26    0.0857    0.0151   -0.0272    0.0681    0.0479    0.0586   -0.0660    0.2004
          27   -0.0771   -0.0263    0.0266   -0.0771   -0.0358   -0.0617    0.0500   -0.1451
          28   -0.0473   -0.0121   -0.0487   -0.0529   -0.0256    0.0168    0.0537   -0.0198
          29    0.1953    0.0502    0.1341    0.1982    0.0541   -0.0633   -0.2150    0.2010
          30    0.0248   -0.0241    0.0465    0.0188    0.0534    0.0119   -0.0144    0.0132
          31    0.0437    0.1847   -0.1295    0.0392   -0.0837   -0.0712    0.0286   -0.1172
          32    0.0281   -0.2776    0.2360    0.0231    0.1421    0.1007   -0.0376    0.1143
          33    0.0437   -0.0289    0.0475    0.0232    0.0495    0.0086   -0.0302    0.0390
          34    0.0485    0.0106   -0.0601    0.0404    0.0262    0.0178    0.0537   -0.0193
          35   -0.0975   -0.0485    0.0632   -0.0898    0.0126   -0.0479   -0.1149    0.1044
          36    0.1768    0.0232   -0.1714    0.1363    0.0757    0.0481    0.1823   -0.1667
          37   -0.0447   -0.1871   -0.1146   -0.0671    0.0862   -0.0695    0.0275   -0.1162
          38    0.0198    0.1418    0.0943    0.0277   -0.0451    0.0517    0.0031    0.0359
          39    0.0488   -0.2439   -0.2152   -0.0176    0.1478   -0.0819    0.0462   -0.1121
          40    0.0963    0.0655   -0.0140    0.1020    0.0083   -0.0694    0.0396   -0.1609
          41   -0.1110   -0.0315   -0.0131   -0.1080   -0.0606    0.0822   -0.0781    0.2372
          42    0.0235   -0.0036    0.0043    0.0106    0.0185   -0.0102    0.0235   -0.0773
          43   -0.1009   -0.0404    0.0937   -0.1535    0.0651   -0.2755    0.2115    0.1386
          44    0.0972   -0.0462    0.0491   -0.0918    0.0083   -0.1352    0.0718    0.0274
          45   -0.2069   -0.0225    0.1199   -0.0983   -0.0175   -0.2349    0.1004    0.0839
          46    0.1013    0.0425    0.0559    0.1699   -0.0545   -0.2773    0.2120    0.1391
          47   -0.2236    0.0079   -0.0605   -0.0402   -0.0228    0.1095   -0.0386   -0.0518
          48   -0.0446   -0.0532   -0.0771   -0.1532   -0.0127    0.2470   -0.1174   -0.0716


   Root No.      25        26        27        28        29        30        31        32

                25 A      26 A      27 A      28 A      29 A      30 A      31 A      32 A   

                1354.2    1398.1    1398.4    1407.5    1408.0    1425.0    1454.3    1778.5
  
           1    0.2190    0.0257   -0.0285   -0.0209    0.0060    0.1486   -0.2845   -0.0148
           2   -0.1901   -0.0552    0.0443    0.0293    0.0089   -0.2722    0.3639    0.0490
           3   -0.1613   -0.0238    0.0147    0.0081    0.0084   -0.1417    0.1337    0.0580
           4   -0.2208    0.0259    0.0288   -0.0047   -0.0220    0.1480    0.2842    0.0148
           5   -0.0191   -0.0131   -0.0142    0.0040    0.0107   -0.0455   -0.1059    0.0180
           6   -0.2548    0.0591    0.0456   -0.0239   -0.0206    0.3022    0.3715    0.0738
           7    0.0669   -0.1469    0.1307   -0.1321    0.0455   -0.1822    0.1629    0.0055
           8   -0.1755   -0.0020    0.0460   -0.1081   -0.0056    0.3589   -0.3178   -0.0188
           9    0.0133    0.1292   -0.1237   -0.1798    0.0506   -0.0013   -0.0151   -0.0095
          10   -0.0666   -0.1487   -0.1330   -0.0250   -0.1339   -0.1827   -0.1627   -0.0056
          11    0.1137   -0.1040   -0.1254    0.0026    0.0948    0.2136    0.1748    0.0033
          12   -0.1322   -0.0724   -0.0344    0.0717    0.1825   -0.2895   -0.2653   -0.0207
          13   -0.0365   -0.0075    0.0053    0.0031   -0.0001   -0.0438    0.0614   -0.6751
          14    0.0965    0.0066   -0.0111   -0.0016   -0.0012    0.0439   -0.1022    0.0101
          15    0.1499    0.0101   -0.0146   -0.0023   -0.0012    0.0589   -0.1244   -0.0103
          16    0.0375   -0.0075   -0.0055    0.0014    0.0030   -0.0436   -0.0613    0.6751
          17    0.0655   -0.0044   -0.0055    0.0007    0.0007   -0.0216   -0.0403   -0.0142
          18    0.1690   -0.0116   -0.0180    0.0028    0.0017   -0.0696   -0.1556    0.0021
          19    0.0976   -0.0025   -0.0271   -0.0141    0.0011   -0.0368   -0.1276    0.0156
          20   -0.0669   -0.0028    0.0087    0.0084    0.0014    0.0102    0.0474    0.0038
          21    0.0826   -0.0191   -0.0149    0.0058    0.0187   -0.1030   -0.0922   -0.0275
          22   -0.0978   -0.0024    0.0271   -0.0072   -0.0130   -0.0376    0.1276   -0.0157
          23    0.1049    0.0139   -0.0171   -0.0111    0.0069    0.0900   -0.1029   -0.0245
          24   -0.0062    0.0137   -0.0018   -0.0151   -0.0034    0.0525   -0.0162   -0.0132
          25    0.1966    0.4518    0.4385    0.0274    0.0922    0.0644    0.0479   -0.0036
          26   -0.2439    0.1573    0.1943    0.1138    0.3490   -0.1733   -0.1243    0.0031
          27    0.1545   -0.0368   -0.0544   -0.0469   -0.1431    0.0695    0.0411   -0.0075
          28   -0.0399    0.0700   -0.0671   -0.0641    0.0183   -0.0155    0.0153   -0.0003
          29    0.3258   -0.1064    0.0763   -0.2515    0.0896   -0.2480    0.1445    0.0025
          30    0.0545   -0.4226    0.4110    0.3859   -0.1135    0.0601   -0.0112    0.0009
          31   -0.1562   -0.0802    0.0926    0.4846   -0.1473    0.2262   -0.1353   -0.0029
          32    0.1825    0.1366   -0.1692    0.2199   -0.0354   -0.1985    0.1413    0.0047
          33    0.0813    0.0907   -0.1146    0.4555   -0.1083   -0.0690    0.0691    0.0027
          34    0.0406    0.0724    0.0696   -0.0162   -0.0684   -0.0160   -0.0152    0.0003
          35   -0.1460    0.2756    0.2845   -0.1001   -0.4738   -0.1965   -0.0938   -0.0007
          36    0.2967    0.3332    0.3030   -0.0164   -0.0211    0.1665    0.1107    0.0026
          37    0.1572   -0.0770   -0.0899    0.1089    0.4933    0.2297    0.1360    0.0028
          38   -0.0420    0.0050    0.0049   -0.0601   -0.2455   -0.0626   -0.0275   -0.0006
          39    0.1946   -0.1666   -0.2066   -0.1363   -0.4323    0.2007    0.1546    0.0053
          40   -0.1952    0.4511   -0.4366    0.0988   -0.0235    0.0652   -0.0485    0.0035
          41    0.2651    0.1193   -0.1555    0.3316   -0.0652   -0.1561    0.1053   -0.0079
          42   -0.1050   -0.1076    0.1272   -0.2071    0.0411    0.0985   -0.0759   -0.0019
          43   -0.0499    0.0053    0.0049   -0.0010   -0.0018    0.0290    0.0367    0.1052
          44    0.0038   -0.0001   -0.0007    0.0006   -0.0017    0.0005   -0.0024   -0.0734
          45   -0.0068    0.0053    0.0013   -0.0012   -0.0017    0.0274    0.0077   -0.1413
          46    0.0485    0.0051   -0.0047   -0.0020   -0.0001    0.0291   -0.0368   -0.1052
          47   -0.0071   -0.0042    0.0013    0.0011    0.0011   -0.0219    0.0076   -0.0710
          48   -0.0003   -0.0031    0.0002    0.0021   -0.0009   -0.0166    0.0027   -0.1425


   Root No.      33        34        35        36        37        38        39        40

                33 A      34 A      35 A      36 A      37 A      38 A      39 A      40 A   

                2954.4    2961.3    3080.0    3080.1    3083.8    3083.9    3178.7    3178.8
  
           1    0.0734   -0.0792   -0.0031    0.0045    0.0007   -0.0011   -0.0017   -0.0004
           2    0.1116   -0.1122   -0.0051    0.0051   -0.0010   -0.0006    0.0018    0.0001
           3   -0.1382    0.1346    0.0065   -0.0068    0.0015   -0.0005    0.0008    0.0010
           4   -0.0728   -0.0797   -0.0036   -0.0041   -0.0010    0.0007    0.0006   -0.0017
           5   -0.1761   -0.1761   -0.0090   -0.0075    0.0000   -0.0018   -0.0009   -0.0001
           6    0.0088    0.0116    0.0003    0.0001    0.0008   -0.0001    0.0006   -0.0019
           7   -0.0064    0.0056   -0.1091    0.1206   -0.0034   -0.2094   -0.0658   -0.0205
           8   -0.0019    0.0021   -0.0559    0.0618   -0.0015   -0.1015    0.1280    0.0399
           9    0.0079   -0.0067    0.1550   -0.1731   -0.0046   -0.1831    0.0026    0.0010
          10    0.0064    0.0056   -0.1222   -0.1086   -0.2087    0.0045    0.0204   -0.0656
          11    0.0074    0.0068   -0.1756   -0.1583    0.0891   -0.0011   -0.0231    0.0736
          12    0.0031    0.0023   -0.0506   -0.0465    0.1901   -0.0037    0.0326   -0.1050
          13    0.0042   -0.0004    0.0003   -0.0002    0.0000   -0.0008    0.0002   -0.0006
          14   -0.0007   -0.0004   -0.0008    0.0008    0.0000    0.0011   -0.0003   -0.0003
          15   -0.0004    0.0033   -0.0002    0.0004   -0.0001    0.0006   -0.0004   -0.0005
          16   -0.0042   -0.0004    0.0003    0.0002   -0.0008    0.0000   -0.0005   -0.0002
          17    0.0001   -0.0029   -0.0003   -0.0001    0.0002    0.0001    0.0002    0.0002
          18   -0.0007   -0.0017    0.0009    0.0008   -0.0012    0.0002    0.0001    0.0007
          19    0.2700    0.2778    0.0108    0.0082   -0.0009    0.0018    0.0000    0.0011
          20    0.6199    0.6216    0.0297    0.0287    0.0022    0.0022    0.0014    0.0051
          21   -0.0393   -0.0388   -0.0051   -0.0055    0.0011   -0.0003    0.0001   -0.0014
          22   -0.2722    0.2758    0.0100   -0.0093    0.0017   -0.0009    0.0009    0.0006
          23   -0.3995    0.3942    0.0191   -0.0234    0.0014    0.0006    0.0030    0.0030
          24    0.4816   -0.4762   -0.0188    0.0220   -0.0016   -0.0025   -0.0021   -0.0028
          25    0.0040    0.0033   -0.0586   -0.0529    0.0549   -0.0008    0.0238   -0.0767
          26   -0.0089   -0.0085    0.1275    0.1164   -0.3113    0.0057   -0.0835    0.2685
          27   -0.0119   -0.0111    0.2777    0.2532   -0.5746    0.0106   -0.1457    0.4682
          28    0.0107   -0.0160    0.2260   -0.2497    0.0121    0.6800    0.5373    0.1675
          29    0.0041   -0.0042    0.0163   -0.0180    0.0010    0.0580    0.0721    0.0225
          30    0.0027   -0.0036    0.0670   -0.0744    0.0016    0.1021    0.0991    0.0309
          31    0.0110   -0.0117    0.2046   -0.2275   -0.0016   -0.0137   -0.2263   -0.0704
          32    0.0126   -0.0101    0.3126   -0.3473   -0.0017    0.0101   -0.3004   -0.0934
          33   -0.0188    0.0162   -0.3665    0.4070    0.0012   -0.0573    0.3847    0.1196
          34   -0.0104   -0.0159    0.2502    0.2218    0.6805   -0.0140   -0.1671    0.5361
          35   -0.0001    0.0005   -0.0513   -0.0459   -0.0530    0.0012    0.0127   -0.0408
          36    0.0048    0.0055   -0.0594   -0.0528   -0.1099    0.0023    0.0370   -0.1185
          37   -0.0110   -0.0119    0.2298    0.2065   -0.0123   -0.0006    0.0715   -0.2289
          38   -0.0224   -0.0192    0.5323    0.4776    0.0550   -0.0028    0.1523   -0.4874
          39   -0.0007   -0.0012   -0.0442   -0.0398    0.0255   -0.0004   -0.0060    0.0190
          40   -0.0041    0.0033   -0.0542    0.0605    0.0016    0.0593   -0.0801   -0.0250
          41   -0.0044    0.0039   -0.1344    0.1507    0.0063    0.2837   -0.2220   -0.0693
          42   -0.0140    0.0130   -0.2371    0.2663    0.0130    0.5901   -0.4918   -0.1537
          43   -0.0045    0.0039    0.0004   -0.0005   -0.0003    0.0003    0.0014    0.0012
          44    0.0019   -0.0029   -0.0003    0.0001    0.0000   -0.0002   -0.0006   -0.0006
          45    0.0041   -0.0027   -0.0004    0.0005   -0.0002   -0.0002   -0.0012   -0.0013
          46    0.0045    0.0040    0.0005    0.0005    0.0003   -0.0002   -0.0001    0.0020
          47    0.0022    0.0005    0.0002    0.0003    0.0000    0.0002    0.0002    0.0009
          48    0.0040    0.0040    0.0005    0.0003    0.0002    0.0002    0.0001    0.0018


   Root No.      41        42

                41 A      42 A   

                3194.2    3214.7
  
           1    0.0023    0.0070
           2   -0.0005   -0.0030
           3   -0.0027   -0.0074
           4    0.0023   -0.0071
           5    0.0020   -0.0042
           6    0.0020   -0.0067
           7    0.0001    0.0001
           8   -0.0001    0.0001
           9   -0.0001    0.0000
          10    0.0002   -0.0003
          11    0.0001   -0.0001
          12    0.0001    0.0002
          13   -0.1425    0.1824
          14   -0.0581    0.0594
          15   -0.1248    0.1291
          16   -0.1422   -0.1824
          17    0.0665    0.0696
          18    0.1203    0.1243
          19   -0.0021    0.0009
          20   -0.0038    0.0035
          21    0.0003   -0.0002
          22   -0.0021   -0.0009
          23   -0.0024   -0.0022
          24    0.0028    0.0026
          25    0.0003   -0.0001
          26   -0.0008    0.0001
          27   -0.0015    0.0006
          28   -0.0017   -0.0009
          29   -0.0003    0.0001
          30   -0.0004    0.0000
          31    0.0004    0.0003
          32    0.0005    0.0001
          33   -0.0008   -0.0002
          34   -0.0019    0.0009
          35    0.0002   -0.0001
          36    0.0005    0.0001
          37    0.0006   -0.0004
          38    0.0011   -0.0003
          39    0.0000   -0.0001
          40    0.0003    0.0000
          41    0.0006    0.0004
          42    0.0013    0.0005
          43    0.4857    0.4792
          44   -0.2292   -0.2260
          45   -0.4142   -0.4080
          46    0.4865   -0.4784
          47    0.1999   -0.1960
          48    0.4299   -0.4223


          DESCRIPTION OF VIBRATIONS


 VIBRATION    1    1A       ATOM PAIR        ENERGY CONTRIBUTION    RADIAL
 FREQ.       164.57        C  3 --  H 14          +24.6% (327.1%)     0.6%
 T-DIPOLE    0.0143        C  3 --  H 10          +24.4% (326.0%)     1.4%
 TRAVEL      0.2420        C  3 --  H 11          +22.3% (311.7%)     0.0%
 RED. MASS   0.2083        C  4 --  H  9           +8.6% (193.9%)     3.4%
 EFF. MASS   6.9939

 VIBRATION    2    2A       ATOM PAIR        ENERGY CONTRIBUTION    RADIAL
 FREQ.       173.04        C  4 --  H 12          +23.3% (306.5%)     0.0%
 T-DIPOLE    0.0097        C  4 --  H  9          +22.8% (302.9%)     0.0%
 TRAVEL      0.2647        C  4 --  H 13          +21.2% (292.3%)     0.5%
 RED. MASS   0.1977        C  3 --  H 11           +7.6% (175.3%)     1.0%
 EFF. MASS   5.5630

 VIBRATION    3    3A       ATOM PAIR        ENERGY CONTRIBUTION    RADIAL
 FREQ.       185.81        C  1 --  C  3          +11.3% (280.9%)     0.1%
 T-DIPOLE    0.0304        C  2 --  C  4          +11.3% (280.5%)     0.1%
 TRAVEL      0.0596        C  3 --  H 10           +7.3% (224.9%)    12.4%
 RED. MASS   1.0216        C  4 --  H 12           +7.3% (224.8%)    10.4%
 EFF. MASS 102.0017

 VIBRATION    4    4A       ATOM PAIR        ENERGY CONTRIBUTION    RADIAL
 FREQ.       309.77        C  1 --  C  3          +16.9% (201.8%)     0.0%
 T-DIPOLE    0.0539        C  3 --  H 11          +12.1% (170.2%)    34.1%
 TRAVEL      0.0770        C  3 --  H 14          +11.2% (164.2%)     2.6%
 RED. MASS   1.1681        C  3 --  H 10           +8.6% (143.9%)    67.2%
 EFF. MASS  36.7366

 VIBRATION    5    5A       ATOM PAIR        ENERGY CONTRIBUTION    RADIAL
 FREQ.       310.70        C  2 --  C  4          +16.8% (211.6%)     0.0%
 T-DIPOLE    0.0710        C  4 --  H 13          +10.3% (166.2%)    57.1%
 TRAVEL      0.0749        C  4 --  H  9           +9.6% (160.2%)     0.4%
 RED. MASS   1.1716        C  2 --  C  5           +8.2% (147.6%)     0.2%
 EFF. MASS  38.7064

 VIBRATION    6    6A       ATOM PAIR        ENERGY CONTRIBUTION    RADIAL
 FREQ.       383.49        C  2 --  C  6           +8.2% (115.6%)     0.4%
 T-DIPOLE    0.1007        C  1 --  C  5           +8.2% (115.5%)     0.4%
 TRAVEL      0.0886        C  1 --  C  6           +7.8% (113.1%)     0.3%
 RED. MASS   0.8406        C  2 --  C  5           +7.8% (113.0%)     0.3%
 EFF. MASS  22.3907

 VIBRATION    7    7A       ATOM PAIR        ENERGY CONTRIBUTION    RADIAL
 FREQ.       575.85        C  1 --  C  2          +10.8% ( 93.6%)     4.3%
 T-DIPOLE    0.0501        C  1 --  C  3           +7.3% ( 76.7%)    13.6%
 TRAVEL      0.0895        C  2 --  C  4           +7.2% ( 76.6%)    13.7%
 RED. MASS   0.8739        C  3 --  H 11           +6.7% ( 73.9%)     8.5%
 EFF. MASS  14.6103

 VIBRATION    8    8A       ATOM PAIR        ENERGY CONTRIBUTION    RADIAL
 FREQ.       763.59        C  1 --  C  6          +11.5% ( 80.1%)    99.1%
[...]
 T-DIPOLE    0.0346        C  1 --  C  2          +15.0% ( 54.9%)    94.7%
 TRAVEL      0.1027        C  2 --  H  7          +12.3% ( 49.7%)     3.6%
 RED. MASS   0.9947        C  1 --  C  3           +8.4% ( 41.0%)     2.8%
 EFF. MASS   5.5385

 VIBRATION   21   21A       ATOM PAIR        ENERGY CONTRIBUTION    RADIAL
 FREQ.      1190.81        C  1 --  C  2          +11.5% ( 54.9%)     1.2%
 T-DIPOLE    0.0048        C  2 --  C  6          +11.3% ( 54.3%)    70.4%
 TRAVEL      0.0856        C  1 --  C  5          +11.1% ( 53.8%)    70.9%
 RED. MASS   1.0561        C  1 --  H  8          +10.5% ( 52.4%)    15.2%
 EFF. MASS   7.7294        C  2 --  H  7          +10.1% ( 51.4%)    16.3%

 VIBRATION   22   22A       ATOM PAIR        ENERGY CONTRIBUTION    RADIAL
 FREQ.      1192.05        C  2 --  H  7          +13.9% ( 46.8%)     0.9%
 T-DIPOLE    0.0978        C  1 --  H  8          +13.1% ( 45.4%)     1.3%
 TRAVEL      0.1276        C  5 --  H 16          +12.7% ( 44.7%)     0.2%
 RED. MASS   0.3274        C  6 --  H 15          +12.4% ( 44.1%)     0.1%
 EFF. MASS   3.4768

 VIBRATION   23   23A       ATOM PAIR        ENERGY CONTRIBUTION    RADIAL
 FREQ.      1228.81        C  1 --  H  8          +11.8% ( 49.7%)     0.2%
 T-DIPOLE    0.0866        C  2 --  H  7          +11.8% ( 49.5%)     0.2%
 TRAVEL      0.0984        C  5 --  C  6          +10.0% ( 45.7%)     0.0%
 RED. MASS   0.6138        C  2 --  C  5           +8.8% ( 42.8%)    83.9%
 EFF. MASS   5.6684

 VIBRATION   24   24A       ATOM PAIR        ENERGY CONTRIBUTION    RADIAL
 FREQ.      1330.84        C  1 --  C  2          +12.4% ( 54.2%)     0.0%
 T-DIPOLE    0.1871        C  1 --  C  5          +11.4% ( 51.9%)    94.6%
 TRAVEL      0.0852        C  2 --  C  6          +11.3% ( 51.6%)    94.7%
 RED. MASS   1.1027        C  1 --  C  6           +7.7% ( 42.6%)    74.5%
 EFF. MASS   6.9849

 VIBRATION   25   25A       ATOM PAIR        ENERGY CONTRIBUTION    RADIAL
 FREQ.      1354.16        C  1 --  C  2          +10.5% ( 43.0%)    83.6%
 T-DIPOLE    0.0400        C  2 --  C  6           +7.7% ( 36.8%)    74.3%
 TRAVEL      0.1050        C  1 --  C  5           +7.4% ( 36.1%)    74.0%
 RED. MASS   0.4222        C  4 --  H  9           +6.9% ( 34.8%)     1.4%
 EFF. MASS   4.5143

 VIBRATION   26   26A       ATOM PAIR        ENERGY CONTRIBUTION    RADIAL
 FREQ.      1398.07        C  4 --  H  9          +22.0% ( 42.1%)     1.6%
 T-DIPOLE    0.0593        C  3 --  H 14          +22.0% ( 42.0%)     1.7%
 TRAVEL      0.1643        C  3 --  H 10          +18.8% ( 38.9%)     3.2%
 RED. MASS   0.2198        C  4 --  H 12          +18.6% ( 38.6%)     3.3%
 EFF. MASS   1.7857

 VIBRATION   27   27A       ATOM PAIR        ENERGY CONTRIBUTION    RADIAL
 FREQ.      1398.39        C  4 --  H  9          +22.7% ( 42.1%)     0.9%
 T-DIPOLE    0.0398        C  3 --  H 14          +22.6% ( 41.9%)     1.0%
 TRAVEL      0.1695        C  3 --  H 10          +17.7% ( 37.1%)     2.9%
 RED. MASS   0.2067        C  4 --  H 12          +17.5% ( 36.9%)     3.0%
 EFF. MASS   1.6780

 VIBRATION   28   28A       ATOM PAIR        ENERGY CONTRIBUTION    RADIAL
 FREQ.      1407.55        C  3 --  H 11          +48.5% ( 60.7%)     0.0%
 T-DIPOLE    0.0362        C  3 --  H 10          +21.9% ( 40.8%)     7.1%
 TRAVEL      0.1725        C  3 --  H 14          +16.7% ( 35.6%)    16.5%
 RED. MASS   0.3638        C  1 --  C  3           +5.0% ( 19.6%)     8.6%
 EFF. MASS   1.6091

 VIBRATION   29   29A       ATOM PAIR        ENERGY CONTRIBUTION    RADIAL
 FREQ.      1408.04        C  4 --  H 13          +48.9% ( 60.6%)     0.0%
 T-DIPOLE    0.0532        C  4 --  H 12          +23.3% ( 41.9%)     6.8%
 TRAVEL      0.1744        C  4 --  H  9          +15.6% ( 34.3%)    17.8%
 RED. MASS   0.3641        C  2 --  C  4           +4.9% ( 19.1%)     4.9%
 EFF. MASS   1.5751

 VIBRATION   30   30A       ATOM PAIR        ENERGY CONTRIBUTION    RADIAL
 FREQ.      1424.97        C  1 --  C  3          +11.6% ( 50.1%)    96.1%
 T-DIPOLE    0.1028        C  2 --  C  4          +11.6% ( 50.1%)    96.2%
 TRAVEL      0.0823        C  4 --  H 13           +8.6% ( 43.0%)     3.5%
 RED. MASS   0.9877        C  3 --  H 11           +8.5% ( 42.8%)     3.5%
 EFF. MASS   6.9865

 VIBRATION   31   31A       ATOM PAIR        ENERGY CONTRIBUTION    RADIAL
 FREQ.      1454.30        C  1 --  C  2          +12.0% ( 57.1%)    53.8%
 T-DIPOLE    0.0828        C  1 --  C  3          +11.7% ( 56.4%)    95.1%
 TRAVEL      0.0704        C  2 --  C  4          +11.6% ( 56.2%)    95.1%
 RED. MASS   1.6965        C  1 --  C  5           +7.0% ( 43.7%)    53.5%
 EFF. MASS   9.3645

 VIBRATION   32   32A       ATOM PAIR        ENERGY CONTRIBUTION    RADIAL
 FREQ.      1778.48        C  5 --  C  6          +36.2% (102.1%)   100.0%
 T-DIPOLE    0.0861        C  1 --  C  6          +11.1% ( 56.6%)    59.4%
 TRAVEL      0.0562        C  2 --  C  5          +11.1% ( 56.6%)    59.4%
 RED. MASS   4.9982        C  2 --  C  6          +10.9% ( 56.0%)     0.2%
 EFF. MASS  12.0061        C  1 --  C  5          +10.9% ( 56.0%)     0.2%

 VIBRATION   33   33A       ATOM PAIR        ENERGY CONTRIBUTION    RADIAL
 FREQ.      2954.37        C  1 --  H  8          +48.1% ( 71.0%)   100.0%
 T-DIPOLE    0.0638        C  2 --  H  7          +47.4% ( 70.5%)   100.0%
 TRAVEL      0.1257        C  1 --  C  2           +1.1% ( 11.0%)    17.0%
 RED. MASS   0.4629        C  1 --  C  3           +0.5% (  7.4%)    11.3%
 EFF. MASS   1.4456

 VIBRATION   34   34A       ATOM PAIR        ENERGY CONTRIBUTION    RADIAL
 FREQ.      2961.35        C  2 --  H  7          +48.2% ( 70.8%)   100.0%
 T-DIPOLE    0.1366        C  1 --  H  8          +47.5% ( 70.3%)   100.0%
 TRAVEL      0.1260        C  1 --  C  2           +0.9% (  9.6%)     0.0%
 RED. MASS   0.4629        C  2 --  C  4           +0.5% (  7.4%)    10.9%
 EFF. MASS   1.4334

 VIBRATION   35   35A       ATOM PAIR        ENERGY CONTRIBUTION    RADIAL
 FREQ.      3080.02        C  4 --  H 13          +36.2% ( 62.1%)    98.9%
 T-DIPOLE    0.0271        C  3 --  H 11          +29.3% ( 55.9%)    98.9%
 TRAVEL      0.1206        C  4 --  H  9          +10.7% ( 33.8%)    86.8%
 RED. MASS   0.2605        C  3 --  H 14           +8.6% ( 30.2%)    86.6%
 EFF. MASS   1.5056

 VIBRATION   36   36A       ATOM PAIR        ENERGY CONTRIBUTION    RADIAL
 FREQ.      3080.08        C  3 --  H 11          +36.2% ( 62.1%)    98.9%
 T-DIPOLE    0.0210        C  4 --  H 13          +29.2% ( 55.7%)    98.9%
 TRAVEL      0.1206        C  3 --  H 14          +10.8% ( 33.8%)    86.8%
 RED. MASS   0.2600        C  4 --  H  9           +8.9% ( 30.8%)    87.2%
 EFF. MASS   1.5054

 VIBRATION   37   37A       ATOM PAIR        ENERGY CONTRIBUTION    RADIAL
 FREQ.      3083.81        C  4 --  H 12          +51.5% ( 74.0%)    97.4%
 T-DIPOLE    0.0243        C  4 --  H  9          +46.3% ( 70.2%)    96.6%
 TRAVEL      0.1205        C  4 --  H 13           +1.2% ( 11.1%)     5.1%
 RED. MASS   0.5090        C  2 --  C  4           +1.0% ( 10.4%)     0.0%
 EFF. MASS   1.5069

 VIBRATION   38   38A       ATOM PAIR        ENERGY CONTRIBUTION    RADIAL
 FREQ.      3083.88        C  3 --  H 10          +51.3% ( 73.9%)    97.4%
 T-DIPOLE    0.0245        C  3 --  H 14          +46.5% ( 70.4%)    96.6%
 TRAVEL      0.1205        C  3 --  H 11           +1.1% ( 11.0%)     4.5%
 RED. MASS   0.5091        C  1 --  C  3           +1.0% ( 10.4%)     0.0%
 EFF. MASS   1.5070

 VIBRATION   39   39A       ATOM PAIR        ENERGY CONTRIBUTION    RADIAL
 FREQ.      3178.73        C  3 --  H 10          +31.1% ( 53.6%)    97.2%
 T-DIPOLE    0.0254        C  3 --  H 14          +30.4% ( 53.0%)    97.1%
 TRAVEL      0.1366        C  3 --  H 11          +29.4% ( 52.2%)    97.0%
 RED. MASS   0.2743        C  4 --  H 12           +3.0% ( 16.7%)    97.2%
 EFF. MASS   1.1365

 VIBRATION   40   40A       ATOM PAIR        ENERGY CONTRIBUTION    RADIAL
 FREQ.      3178.84        C  4 --  H 12          +31.0% ( 53.6%)    97.2%
 T-DIPOLE    0.0441        C  4 --  H  9          +30.3% ( 53.0%)    97.1%
 TRAVEL      0.1366        C  4 --  H 13          +29.5% ( 52.3%)    97.0%
 RED. MASS   0.2743        C  3 --  H 10           +3.0% ( 16.7%)    97.2%
 EFF. MASS   1.1367

 VIBRATION   41   41A       ATOM PAIR        ENERGY CONTRIBUTION    RADIAL
 FREQ.      3194.24        C  5 --  H 16          +48.0% ( 70.9%)   100.0%
 T-DIPOLE    0.4701        C  6 --  H 15          +47.8% ( 70.8%)   100.0%
 TRAVEL      0.1201        C  5 --  C  6           +1.1% ( 10.5%)     0.0%
 RED. MASS   0.4649        C  2 --  C  5           +0.8% (  9.1%)    99.9%
 EFF. MASS   1.4627

 VIBRATION   42   42A       ATOM PAIR        ENERGY CONTRIBUTION    RADIAL
 FREQ.      3214.65        C  6 --  H 15          +46.4% ( 70.5%)    99.9%
 T-DIPOLE    0.3713        C  5 --  H 16          +46.2% ( 70.4%)    99.9%
 TRAVEL      0.1099        C  5 --  C  6           +3.0% ( 18.0%)   100.0%
 RED. MASS   0.4704        C  1 --  C  6           +1.1% ( 10.8%)    98.2%
 EFF. MASS   1.7367

 SYMMETRY NUMBER FOR POINT-GROUP C1  =  1


          SYSTEM IS A GROUND STATE


    NULL



          MOLECULE IS NOT LINEAR

          THERE ARE 42 GENUINE VIBRATIONS IN THIS SYSTEM
          THIS THERMODYNAMICS CALCULATION IS LIMITED TO
          MOLECULES WHICH HAVE NO INTERNAL ROTATIONS




                    CALCULATED THERMODYNAMIC PROPERTIES
                                          *
   TEMP. (K)   PARTITION FUNCTION   H.O.F.    ENTHALPY  HEAT CAPACITY ENTROPY
                                   KCAL/MOL   CAL/MOLE    CAL/K/MOL  CAL/K/MOL


 298.00  VIB.     0.1333D+02                  2383.6207    18.4275    13.1451
         ROT.     0.1336D+06                   888.2813     2.9808    26.4357
         INT.     0.1781D+07                  3271.9020    21.4083    39.5808
         TRA.     0.7198D+27                  1480.4688     4.9680    39.1295
         TOT.                       24.176    4752.3708    26.3763    78.7103

 200.00  VIB.     0.3803D+01                   955.4207    11.0276     7.4313
         ROT.     0.7348D+05                   596.1620     2.9808    25.2470
         INT.     0.2794D+06                  1551.5827    14.0084    32.6784
         TRA.     0.3957D+27                   993.6033     4.9680    37.1484
         TOT.                       21.969    2545.1859    18.9764    69.8267

 210.00  VIB.     0.4292D+01                  1068.9875    11.6896     7.9853
         ROT.     0.7906D+05                   625.9700     2.9808    25.3925
         INT.     0.3393D+06                  1694.9575    14.6705    33.3778
         TRA.     0.4258D+27                  1043.2834     4.9680    37.3907
         TOT.                       22.162    2738.2410    19.6385    70.7685

 220.00  VIB.     0.4853D+01                  1189.2921    12.3752     8.5448
         ROT.     0.8477D+05                   655.7781     2.9808    25.5311
         INT.     0.4114D+06                  1845.0703    15.3560    34.0760
         TRA.     0.4566D+27                  1092.9636     4.9680    37.6219
         TOT.                       22.362    2938.0338    20.3241    71.6978

 230.00  VIB.     0.5496D+01                  1316.5714    13.0845     9.1105
         ROT.     0.9062D+05                   685.5862     2.9808    25.6636
         INT.     0.4981D+06                  2002.1576    16.0653    34.7741
         TRA.     0.4880D+27                  1142.6437     4.9680    37.8427
         TOT.                       22.569    3144.8013    21.0333    72.6168

 240.00  VIB.     0.6234D+01                  1451.0595    13.8168     9.6828
         ROT.     0.9659D+05                   715.3943     2.9808    25.7905
         INT.     0.6022D+06                  2166.4538    16.7977    35.4733
         TRA.     0.5202D+27                  1192.3239     4.9680    38.0541
         TOT.                       22.783    3358.7777    21.7657    73.5274

 250.00  VIB.     0.7082D+01                  1592.9809    14.5709    10.2620
         ROT.     0.1027D+06                   745.2024     2.9808    25.9122
         INT.     0.7273D+06                  2338.1833    17.5517    36.1742
         TRA.     0.5531D+27                  1242.0041     4.9680    38.2569
         TOT.                       23.004    3580.1874    22.5197    74.4311

 260.00  VIB.     0.8057D+01                  1742.5443    15.3449    10.8485
         ROT.     0.1089D+06                   775.0105     2.9808    26.0291
         INT.     0.8776D+06                  2517.5548    18.3257    36.8776
         TRA.     0.5866D+27                  1291.6842     4.9680    38.4518
         TOT.                       23.233    3809.2390    23.2937    75.3294

 270.00  VIB.     0.9180D+01                  1899.9386    16.1367    11.4424
         ROT.     0.1153D+06                   804.8186     2.9808    26.1416
         INT.     0.1058D+07                  2704.7572    19.1175    37.5840
         TRA.     0.6208D+27                  1341.3644     4.9680    38.6393
         TOT.                       23.470    4046.1216    24.0855    76.2233

 280.00  VIB.     0.1047D+02                  2065.3297    16.9439    12.0438
         ROT.     0.1217D+06                   834.6267     2.9808    26.2500
         INT.     0.1275D+07                  2899.9564    19.9247    38.2938
         TRA.     0.6556D+27                  1391.0445     4.9680    38.8200
         TOT.                       23.715    4291.0010    24.8927    77.1138

 290.00  VIB.     0.1197D+02                  2238.8590    17.7639    12.6527
         ROT.     0.1283D+06                   864.4348     2.9808    26.3546
         INT.     0.1535D+07                  3103.2938    20.7447    39.0073
         TRA.     0.6910D+27                  1440.7247     4.9680    38.9943
         TOT.                       23.968    4544.0185    25.7127    78.0016

 300.00  VIB.     0.1369D+02                  2420.6424    18.5943    13.2689
         ROT.     0.1350D+06                   894.2429     2.9808    26.4557
         INT.     0.1848D+07                  3314.8853    21.5751    39.7245
         TRA.     0.7270D+27                  1490.4049     4.9680    39.1627
         TOT.                       24.229    4805.2902    26.5431    78.8873

 310.00  VIB.     0.1569D+02                  2610.7701    19.4324    13.8922
         ROT.     0.1418D+06                   924.0510     2.9808    26.5534
         INT.     0.2224D+07                  3534.8212    22.4132    40.4456
         TRA.     0.7637D+27                  1540.0850     4.9680    39.3256
         TOT.                       24.499    5074.9062    27.3812    79.7712

 320.00  VIB.     0.1800D+02                  2809.3077    20.2758    14.5225
         ROT.     0.1487D+06                   953.8591     2.9808    26.6480
         INT.     0.2676D+07                  3763.1668    23.2566    41.1705
         TRA.     0.8009D+27                  1589.7652     4.9680    39.4834
         TOT.                       24.777    5352.9320    28.2246    80.6539

 330.00  VIB.     0.2067D+02                  3016.2964    21.1222    15.1594
         ROT.     0.1557D+06                   983.6672     2.9808    26.7398
         INT.     0.3220D+07                  3999.9636    24.1030    41.8991
         TRA.     0.8388D+27                  1639.4454     4.9680    39.6362
         TOT.                       25.064    5639.4090    29.0711    81.5353

 340.00  VIB.     0.2378D+02                  3231.7550    21.9694    15.8025
         ROT.     0.1629D+06                  1013.4753     2.9808    26.8287
         INT.     0.3874D+07                  4245.2303    24.9503    42.6312
         TRA.     0.8772D+27                  1689.1255     4.9680    39.7845
         TOT.                       25.358    5934.3558    29.9183    82.4158

 350.00  VIB.     0.2739D+02                  3455.6812    22.8154    16.4516
         ROT.     0.1701D+06                  1043.2834     2.9808    26.9151
         INT.     0.4660D+07                  4498.9646    25.7963    43.3667
         TRA.     0.9162D+27                  1738.8057     4.9680    39.9285
         TOT.                       25.662    6237.7703    30.7643    83.2952

 360.00  VIB.     0.3159D+02                  3688.0536    23.6584    17.1061
         ROT.     0.1775D+06                  1073.0915     2.9808    26.9991
         INT.     0.5606D+07                  4761.1451    26.6392    44.1052
         TRA.     0.9557D+27                  1788.4859     4.9680    40.0685
         TOT.                       25.974    6549.6309    31.6072    84.1737

 370.00  VIB.     0.3648D+02                  3928.8331    24.4966    17.7658
         ROT.     0.1849D+06                  1102.8996     2.9808    27.0808
         INT.     0.6744D+07                  5031.7327    27.4774    44.8466
         TRA.     0.9958D+27                  1838.1660     4.9680    40.2046
         TOT.                       26.294    6869.8987    32.4454    85.0512

 380.00  VIB.     0.4217D+02                  4177.9653    25.3287    18.4301
         ROT.     0.1924D+06                  1132.7077     2.9808    27.1603
         INT.     0.8115D+07                  5310.6730    28.3095    45.5904
         TRA.     0.1036D+28                  1887.8462     4.9680    40.3371
         TOT.                       26.623    7198.5192    33.2775    85.9275

 390.00  VIB.     0.4881D+02                  4435.3818    26.1533    19.0987
         ROT.     0.2001D+06                  1162.5158     2.9808    27.2377
         INT.     0.9766D+07                  5597.8976    29.1341    46.3364
         TRA.     0.1078D+28                  1937.5263     4.9680    40.4662
         TOT.                       26.960    7535.4239    34.1021    86.8026

 400.00  VIB.     0.5655D+02                  4701.0022    26.9693    19.7712
         ROT.     0.2078D+06                  1192.3239     2.9808    27.3132
         INT.     0.1175D+08                  5893.3261    29.9501    47.0843
         TRA.     0.1119D+28                  1987.2065     4.9680    40.5919
         TOT.                       27.305    7880.5326    34.9181    87.6763

   *: NOTE: HEATS OF FORMATION ARE RELATIVE TO THE
            ELEMENTS IN THEIR STANDARD STATE AT 298K
              (=  Standard Enthalpy of Formation).

            Hvib:  Zero-point energy is not included.
                   frequencies of less than zero cm-1 are not included.
            Hrot = (3/2)RT
            Htra = (3/2)RT + pV = (5/2)RT

            Heat capacity is Cp, not Cv

           For more information, see: HTTP://OpenMOPAC.net/Manual/thermochemistry.html


           FORCE CONSTANT IN CARTESIAN COORDINATES (Millidynes/A)

    ATOM   CHEMICAL       X               Y               Z
   NUMBER   SYMBOL  FORCE CONSTANT  FORCE CONSTANT  FORCE CONSTANT

      1       C        7.284217        8.697884        8.314891
      2       C        7.284659        8.558909        8.451674
      3       C        8.383943        8.490244        8.302466
      4       C        8.382730        8.326860        8.466722
      5       C       15.245242        3.618629        7.712321
      6       C       15.244134        3.733876        7.600944
      7       H        1.381221        4.151235        0.689653
      8       H        1.381668        2.126599        2.714455
      9       H        0.729591        1.722920        4.292871
     10       H        5.194402        0.742476        0.808294
     11       H        1.439571        2.308816        3.015296
     12       H        5.182657        0.720856        0.841708
     13       H        1.458302        4.598385        0.709504
     14       H        0.737141        1.588687        4.417253
     15       H        3.192003        0.973210        2.425631
     16       H        3.192853        0.828171        2.569894



 TOTAL CPU TIME:             0.89 SECONDS

 == MOPAC DONE ==
