 *******************************************************************************
 ** Site#: 14399           For non-commercial use only        Version 13.159M **
 *******************************************************************************
 ** Cite this work as: MOPAC2012, James J. P. Stewart, Stewart Computational  **
 ** Chemistry, Version 13.159M web: HTTP://OpenMOPAC.net  Days remaining:   6 **
 *******************************************************************************
 **                                                                           **
 **                                MOPAC2012                                  **
 **                                                                           **
 *******************************************************************************

                            PM3 CALCULATION RESULTS


 *******************************************************************************
 *  CALCULATION DONE:                                Mon Jun  2 14:11:13 2014  *
 *  PM3      - The PM3 Hamiltonian to be used
 *  PRECISE  - CRITERIA TO BE INCREASED BY 100 TIMES
 *  NOSYM    - POINT-GROUP SYMMETRY SET TO C1
 *  T=       - A TIME OF 172800.0 SECONDS REQUESTED
 *  DUMP=N   - RESTART FILE WRITTEN EVERY  7200.000 SECONDS
 *******************************************************************************
pm3  precise nosym
 InChI=1S/C8H12O/c1-3-6-5-8(9)7(6)4-2/h3,6-7H,1,4-5H2,2H3

   ATOM   CHEMICAL          X               Y               Z
  NUMBER   SYMBOL      (ANGSTROMS)     (ANGSTROMS)     (ANGSTROMS)
 
     1       C         -0.54010000  *   0.27390000  *  -0.67560000  *
     2       C          0.68950000  *   0.43930000  *   0.22010000  *
     3       C         -1.86810000  *   0.04390000  *   0.05490000  *
     4       C          0.84460000  *   1.84540000  *  -0.24790000  *
     5       C         -1.98720000  *  -1.37580000  *   0.59830000  *
     6       C         -0.36790000  *   1.73220000  *  -1.11820000  *
     7       C          1.83130000  *  -0.46820000  *  -0.16070000  *
     8       C          2.43900000  *  -1.25920000  *   0.72620000  *
     9       H         -0.41660000  *  -0.42700000  *  -1.53730000  *
    10       H          0.45140000  *   0.40900000  *   1.31180000  *
    11       H         -2.00030000  *   0.76770000  *   0.89340000  *
    12       H         -2.70520000  *   0.21660000  *  -0.66060000  *
    13       H          0.67550000  *   2.59620000  *   0.55850000  *
    14       H          1.77270000  *   2.07050000  *  -0.82630000  *
    15       H         -1.19120000  *  -1.58530000  *   1.34860000  *
    16       H         -1.91270000  *  -2.12300000  *  -0.22450000  *
    17       H         -2.97390000  *  -1.50750000  *   1.09730000  *
    18       O         -0.30650000  *   2.02640000  *  -2.34430000  *
    19       H          2.17140000  *  -0.48850000  *  -1.19610000  *
    20       H          3.25760000  *  -1.90340000  *   0.41080000  *
    21       H          2.13650000  *  -1.28310000  *   1.77180000  *
 


          CARTESIAN COORDINATES 

    NO.       ATOM         X         Y         Z

     1         C       -0.5401    0.2739   -0.6756
     2         C        0.6895    0.4393    0.2201
     3         C       -1.8681    0.0439    0.0549
     4         C        0.8446    1.8454   -0.2479
     5         C       -1.9872   -1.3758    0.5983
     6         C       -0.3679    1.7322   -1.1182
     7         C        1.8313   -0.4682   -0.1607
     8         C        2.4390   -1.2592    0.7262
     9         H       -0.4166   -0.4270   -1.5373
    10         H        0.4514    0.4090    1.3118
    11         H       -2.0003    0.7677    0.8934
    12         H       -2.7052    0.2166   -0.6606
    13         H        0.6755    2.5962    0.5585
    14         H        1.7727    2.0705   -0.8263
    15         H       -1.1912   -1.5853    1.3486
    16         H       -1.9127   -2.1230   -0.2245
    17         H       -2.9739   -1.5075    1.0973
    18         O       -0.3065    2.0264   -2.3443
    19         H        2.1714   -0.4885   -1.1961
    20         H        3.2576   -1.9034    0.4108
    21         H        2.1365   -1.2831    1.7718

  H: (PM3): J. J. P. STEWART, J. COMP. CHEM. 10, 209 (1989).
  C: (PM3): J. J. P. STEWART, J. COMP. CHEM. 10, 209 (1989).
  O: (PM3): J. J. P. STEWART, J. COMP. CHEM. 10, 209 (1989).

           Empirical Formula: C8 H12 O  =    21 atoms



      MOLECULAR POINT GROUP   :   C1  


      RHF CALCULATION, NO. OF DOUBLY OCCUPIED LEVELS =   25

      Geometry optimization using EF

          DIAGONAL MATRIX USED AS START HESSIAN

 CYCLE:     1 TIME:   0.013 TIME LEFT:  2.00D  GRAD.:   240.850 HEAT: 5.952667
 CYCLE:     2 TIME:   0.013 TIME LEFT:  2.00D  GRAD.:   210.384 HEAT:-2.897699
 CYCLE:     3 TIME:   0.006 TIME LEFT:  2.00D  GRAD.:   115.420 HEAT:-10.33507
 CYCLE:     4 TIME:   0.007 TIME LEFT:  2.00D  GRAD.:   168.029 HEAT:-11.93613
 CYCLE:     5 TIME:   0.012 TIME LEFT:  2.00D  GRAD.:   108.941 HEAT:-15.86178
 CYCLE:     6 TIME:   0.012 TIME LEFT:  2.00D  GRAD.:    59.209 HEAT:-17.93055
 CYCLE:     7 TIME:   0.006 TIME LEFT:  2.00D  GRAD.:    38.201 HEAT:-19.61563
 CYCLE:     8 TIME:   0.012 TIME LEFT:  2.00D  GRAD.:    72.572 HEAT:-20.10140
 CYCLE:     9 TIME:   0.006 TIME LEFT:  2.00D  GRAD.:    43.060 HEAT:-21.42623
 CYCLE:    10 TIME:   0.014 TIME LEFT:  2.00D  GRAD.:    47.216 HEAT:-21.83746
 CYCLE:    11 TIME:   0.007 TIME LEFT:  2.00D  GRAD.:    23.342 HEAT:-22.54086
 CYCLE:    12 TIME:   0.018 TIME LEFT:  2.00D  GRAD.:    24.573 HEAT:-22.74402
 CYCLE:    13 TIME:   0.006 TIME LEFT:  2.00D  GRAD.:    16.233 HEAT:-22.98038
 CYCLE:    14 TIME:   0.007 TIME LEFT:  2.00D  GRAD.:    26.279 HEAT:-23.21693
 CYCLE:    15 TIME:   0.006 TIME LEFT:  2.00D  GRAD.:    27.276 HEAT:-23.46313
 CYCLE:    16 TIME:   0.007 TIME LEFT:  2.00D  GRAD.:    36.739 HEAT:-23.60595
 CYCLE:    17 TIME:   0.006 TIME LEFT:  2.00D  GRAD.:    32.704 HEAT:-23.67118
 CYCLE:    18 TIME:   0.011 TIME LEFT:  2.00D  GRAD.:    19.735 HEAT:-23.96855
 CYCLE:    19 TIME:   0.011 TIME LEFT:  2.00D  GRAD.:    14.675 HEAT:-24.03856
 CYCLE:    20 TIME:   0.006 TIME LEFT:  2.00D  GRAD.:    17.123 HEAT:-24.09792
 CYCLE:    21 TIME:   0.006 TIME LEFT:  2.00D  GRAD.:     9.382 HEAT:-24.19466
 CYCLE:    22 TIME:   0.006 TIME LEFT:  2.00D  GRAD.:     9.895 HEAT:-24.31448
 CYCLE:    23 TIME:   0.007 TIME LEFT:  2.00D  GRAD.:    12.824 HEAT:-24.42196
 CYCLE:    24 TIME:   0.007 TIME LEFT:  2.00D  GRAD.:    17.964 HEAT:-24.47920
 CYCLE:    25 TIME:   0.010 TIME LEFT:  2.00D  GRAD.:    10.080 HEAT:-24.55753
 CYCLE:    26 TIME:   0.006 TIME LEFT:  2.00D  GRAD.:     9.010 HEAT:-24.60228
 CYCLE:    27 TIME:   0.006 TIME LEFT:  2.00D  GRAD.:     4.758 HEAT:-24.64633
 CYCLE:    28 TIME:   0.006 TIME LEFT:  2.00D  GRAD.:    10.068 HEAT:-24.66027
 CYCLE:    29 TIME:   0.006 TIME LEFT:  2.00D  GRAD.:     8.814 HEAT:-24.69573
 CYCLE:    30 TIME:   0.006 TIME LEFT:  2.00D  GRAD.:     7.068 HEAT:-24.72937
 CYCLE:    31 TIME:   0.006 TIME LEFT:  2.00D  GRAD.:     4.464 HEAT:-24.76717
 CYCLE:    32 TIME:   0.006 TIME LEFT:  2.00D  GRAD.:     4.908 HEAT:-24.80980
 CYCLE:    33 TIME:   0.006 TIME LEFT:  2.00D  GRAD.:     6.833 HEAT:-24.82415
 CYCLE:    34 TIME:   0.006 TIME LEFT:  2.00D  GRAD.:     3.108 HEAT:-24.84552
 CYCLE:    35 TIME:   0.006 TIME LEFT:  2.00D  GRAD.:     3.381 HEAT:-24.86976
 CYCLE:    36 TIME:   0.006 TIME LEFT:  2.00D  GRAD.:     4.321 HEAT:-24.88229
 CYCLE:    37 TIME:   0.006 TIME LEFT:  2.00D  GRAD.:     2.356 HEAT:-24.89258
 CYCLE:    38 TIME:   0.006 TIME LEFT:  2.00D  GRAD.:     2.341 HEAT:-24.90190
 CYCLE:    39 TIME:   0.006 TIME LEFT:  2.00D  GRAD.:     3.208 HEAT:-24.91341
 CYCLE:    40 TIME:   0.006 TIME LEFT:  2.00D  GRAD.:     4.414 HEAT:-24.92641
 CYCLE:    41 TIME:   0.006 TIME LEFT:  2.00D  GRAD.:     2.934 HEAT:-24.94155
 CYCLE:    42 TIME:   0.006 TIME LEFT:  2.00D  GRAD.:     1.924 HEAT:-24.95306
 CYCLE:    43 TIME:   0.006 TIME LEFT:  2.00D  GRAD.:     1.773 HEAT:-24.95933
 CYCLE:    44 TIME:   0.006 TIME LEFT:  2.00D  GRAD.:     1.882 HEAT:-24.96419
 CYCLE:    45 TIME:   0.006 TIME LEFT:  2.00D  GRAD.:     1.653 HEAT:-24.97036
 CYCLE:    46 TIME:   0.006 TIME LEFT:  2.00D  GRAD.:     1.673 HEAT:-24.97677
 CYCLE:    47 TIME:   0.006 TIME LEFT:  2.00D  GRAD.:     1.663 HEAT:-24.98168
 CYCLE:    48 TIME:   0.006 TIME LEFT:  2.00D  GRAD.:     1.883 HEAT:-24.98796
 CYCLE:    49 TIME:   0.006 TIME LEFT:  2.00D  GRAD.:     1.899 HEAT:-24.99602
 CYCLE:    50 TIME:   0.006 TIME LEFT:  2.00D  GRAD.:     1.929 HEAT:-25.00593
 CYCLE:    51 TIME:   0.006 TIME LEFT:  2.00D  GRAD.:     2.032 HEAT:-25.01486
 CYCLE:    52 TIME:   0.006 TIME LEFT:  2.00D  GRAD.:     1.934 HEAT:-25.02303
 CYCLE:    53 TIME:   0.006 TIME LEFT:  2.00D  GRAD.:     2.058 HEAT:-25.03134
 CYCLE:    54 TIME:   0.006 TIME LEFT:  2.00D  GRAD.:     1.868 HEAT:-25.03860
 CYCLE:    55 TIME:   0.006 TIME LEFT:  2.00D  GRAD.:     1.506 HEAT:-25.04439
 CYCLE:    56 TIME:   0.006 TIME LEFT:  2.00D  GRAD.:     1.422 HEAT:-25.04851
 CYCLE:    57 TIME:   0.006 TIME LEFT:  2.00D  GRAD.:     1.165 HEAT:-25.05163
 CYCLE:    58 TIME:   0.006 TIME LEFT:  2.00D  GRAD.:     0.996 HEAT:-25.05371
 CYCLE:    59 TIME:   0.006 TIME LEFT:  2.00D  GRAD.:     0.664 HEAT:-25.05500
 CYCLE:    60 TIME:   0.006 TIME LEFT:  2.00D  GRAD.:     0.437 HEAT:-25.05579
 CYCLE:    61 TIME:   0.006 TIME LEFT:  2.00D  GRAD.:     0.367 HEAT:-25.05622
 CYCLE:    62 TIME:   0.006 TIME LEFT:  2.00D  GRAD.:     0.280 HEAT:-25.05645
 CYCLE:    63 TIME:   0.006 TIME LEFT:  2.00D  GRAD.:     0.253 HEAT:-25.05658
 CYCLE:    64 TIME:   0.006 TIME LEFT:  2.00D  GRAD.:     0.252 HEAT:-25.05672
 CYCLE:    65 TIME:   0.006 TIME LEFT:  2.00D  GRAD.:     0.274 HEAT:-25.05688
 CYCLE:    66 TIME:   0.006 TIME LEFT:  2.00D  GRAD.:     0.286 HEAT:-25.05706
 CYCLE:    67 TIME:   0.006 TIME LEFT:  2.00D  GRAD.:     0.275 HEAT:-25.05724
 CYCLE:    68 TIME:   0.006 TIME LEFT:  2.00D  GRAD.:     0.268 HEAT:-25.05742
 CYCLE:    69 TIME:   0.006 TIME LEFT:  2.00D  GRAD.:     0.295 HEAT:-25.05763
 CYCLE:    70 TIME:   0.006 TIME LEFT:  2.00D  GRAD.:     0.337 HEAT:-25.05786
 CYCLE:    71 TIME:   0.007 TIME LEFT:  2.00D  GRAD.:     0.352 HEAT:-25.05816
 CYCLE:    72 TIME:   0.006 TIME LEFT:  2.00D  GRAD.:     0.317 HEAT:-25.05842
 CYCLE:    73 TIME:   0.006 TIME LEFT:  2.00D  GRAD.:     0.247 HEAT:-25.05864
 CYCLE:    74 TIME:   0.006 TIME LEFT:  2.00D  GRAD.:     0.204 HEAT:-25.05872
 CYCLE:    75 TIME:   0.006 TIME LEFT:  2.00D  GRAD.:     0.259 HEAT:-25.05886
 CYCLE:    76 TIME:   0.006 TIME LEFT:  2.00D  GRAD.:     0.246 HEAT:-25.05894
 CYCLE:    77 TIME:   0.006 TIME LEFT:  2.00D  GRAD.:     0.233 HEAT:-25.05937
 CYCLE:    78 TIME:   0.006 TIME LEFT:  2.00D  GRAD.:     0.242 HEAT:-25.05961
 CYCLE:    79 TIME:   0.006 TIME LEFT:  2.00D  GRAD.:     0.380 HEAT:-25.06007
 CYCLE:    80 TIME:   0.006 TIME LEFT:  2.00D  GRAD.:     0.293 HEAT:-25.06016
 CYCLE:    81 TIME:   0.006 TIME LEFT:  2.00D  GRAD.:     0.172 HEAT:-25.06027
 CYCLE:    82 TIME:   0.006 TIME LEFT:  2.00D  GRAD.:     0.128 HEAT:-25.06030
 CYCLE:    83 TIME:   0.006 TIME LEFT:  2.00D  GRAD.:     0.114 HEAT:-25.06036
 CYCLE:    84 TIME:   0.006 TIME LEFT:  2.00D  GRAD.:     0.118 HEAT:-25.06039
 CYCLE:    85 TIME:   0.006 TIME LEFT:  2.00D  GRAD.:     0.285 HEAT:-25.06047
 CYCLE:    86 TIME:   0.006 TIME LEFT:  2.00D  GRAD.:     0.269 HEAT:-25.06053
 CYCLE:    87 TIME:   0.006 TIME LEFT:  2.00D  GRAD.:     0.314 HEAT:-25.06082
 CYCLE:    88 TIME:   0.006 TIME LEFT:  2.00D  GRAD.:     0.400 HEAT:-25.06112
 CYCLE:    89 TIME:   0.006 TIME LEFT:  2.00D  GRAD.:     0.957 HEAT:-25.06269
 CYCLE:    90 TIME:   0.006 TIME LEFT:  2.00D  GRAD.:     0.799 HEAT:-25.06390
 CYCLE:    91 TIME:   0.007 TIME LEFT:  2.00D  GRAD.:     2.100 HEAT:-25.06553
 CYCLE:    92 TIME:   0.006 TIME LEFT:  2.00D  GRAD.:     1.764 HEAT:-25.06558
 CYCLE:    93 TIME:   0.006 TIME LEFT:  2.00D  GRAD.:     0.583 HEAT:-25.06745
 CYCLE:    94 TIME:   0.006 TIME LEFT:  2.00D  GRAD.:     0.796 HEAT:-25.06823
 CYCLE:    95 TIME:   0.006 TIME LEFT:  2.00D  GRAD.:     2.406 HEAT:-25.06894
 CYCLE:    96 TIME:   0.006 TIME LEFT:  2.00D  GRAD.:     1.150 HEAT:-25.07070
 CYCLE:    97 TIME:   0.008 TIME LEFT:  2.00D  GRAD.:     0.442 HEAT:-25.07345
 CYCLE:    98 TIME:   0.009 TIME LEFT:  2.00D  GRAD.:     1.226 HEAT:-25.07493
 CYCLE:    99 TIME:   0.006 TIME LEFT:  2.00D  GRAD.:     1.340 HEAT:-25.07592
 CYCLE:   100 TIME:   0.006 TIME LEFT:  2.00D  GRAD.:     0.556 HEAT:-25.07770
 CYCLE:   101 TIME:   0.006 TIME LEFT:  2.00D  GRAD.:     1.682 HEAT:-25.07840
 CYCLE:   102 TIME:   0.006 TIME LEFT:  2.00D  GRAD.:     1.159 HEAT:-25.08014
 CYCLE:   103 TIME:   0.007 TIME LEFT:  2.00D  GRAD.:     2.052 HEAT:-25.08302
 CYCLE:   104 TIME:   0.006 TIME LEFT:  2.00D  GRAD.:     1.524 HEAT:-25.08563
 CYCLE:   105 TIME:   0.012 TIME LEFT:  2.00D  GRAD.:     2.347 HEAT:-25.09132
 CYCLE:   106 TIME:   0.007 TIME LEFT:  2.00D  GRAD.:     3.154 HEAT:-25.09159
 CYCLE:   107 TIME:   0.006 TIME LEFT:  2.00D  GRAD.:     4.514 HEAT:-25.09508
 CYCLE:   108 TIME:   0.006 TIME LEFT:  2.00D  GRAD.:     2.156 HEAT:-25.10042
 CYCLE:   109 TIME:   0.006 TIME LEFT:  2.00D  GRAD.:     3.773 HEAT:-25.10625
 CYCLE:   110 TIME:   0.006 TIME LEFT:  2.00D  GRAD.:     1.434 HEAT:-25.11444
 CYCLE:   111 TIME:   0.006 TIME LEFT:  2.00D  GRAD.:     3.268 HEAT:-25.11717
 CYCLE:   112 TIME:   0.006 TIME LEFT:  2.00D  GRAD.:     1.557 HEAT:-25.12260
 CYCLE:   113 TIME:   0.006 TIME LEFT:  2.00D  GRAD.:     0.956 HEAT:-25.12609
 CYCLE:   114 TIME:   0.007 TIME LEFT:  2.00D  GRAD.:     2.180 HEAT:-25.12696
 CYCLE:   115 TIME:   0.006 TIME LEFT:  2.00D  GRAD.:     0.634 HEAT:-25.12893
 CYCLE:   116 TIME:   0.006 TIME LEFT:  2.00D  GRAD.:     0.543 HEAT:-25.12935
 CYCLE:   117 TIME:   0.007 TIME LEFT:  2.00D  GRAD.:     0.287 HEAT:-25.12953
 CYCLE:   118 TIME:   0.007 TIME LEFT:  2.00D  GRAD.:     0.255 HEAT:-25.12964
 CYCLE:   119 TIME:   0.006 TIME LEFT:  2.00D  GRAD.:     0.160 HEAT:-25.12971
 CYCLE:   120 TIME:   0.006 TIME LEFT:  2.00D  GRAD.:     0.080 HEAT:-25.12972
 CYCLE:   121 TIME:   0.006 TIME LEFT:  2.00D  GRAD.:     0.093 HEAT:-25.12975
 CYCLE:   122 TIME:   0.006 TIME LEFT:  2.00D  GRAD.:     0.054 HEAT:-25.12976
 CYCLE:   123 TIME:   0.006 TIME LEFT:  2.00D  GRAD.:     0.045 HEAT:-25.12976

     RMS GRADIENT =  0.04479  IS LESS THAN CUTOFF =  0.05000



 -------------------------------------------------------------------------------
pm3  precise nosym
 InChI=1S/C8H12O/c1-3-6-5-8(9)7(6)4-2/h3,6-7H,1,4-5H2,2H3



     GEOMETRY OPTIMISED USING EIGENVECTOR FOLLOWING (EF).     
     SCF FIELD WAS ACHIEVED                                   


                              PM3 CALCULATION
                                                       MOPAC2012 (Version: 13.159M)
                                                       Mon Jun  2 14:11:14 2014
                                                       No. of days left =   6




          FINAL HEAT OF FORMATION =        -25.12976 KCAL/MOL =    -105.14292 KJ/MOL


          TOTAL ENERGY            =      -1426.13013 EV
          ELECTRONIC ENERGY       =      -7091.48277 EV  POINT GROUP:     C1  
          CORE-CORE REPULSION     =       5665.35264 EV
          COSMO AREA              =        174.46 SQUARE ANGSTROMS
          COSMO VOLUME            =        177.33 CUBIC ANGSTROMS

          GRADIENT NORM           =          0.04479
          IONIZATION POTENTIAL    =         10.349133 EV
          HOMO LUMO ENERGIES (EV) =        -10.349  0.808
          NO. OF FILLED LEVELS    =         25
          MOLECULAR WEIGHT        =        124.182

          MOLECULAR DIMENSIONS (Angstroms)

            Atom       Atom       Distance
            H    20    O    18     6.44413
            H    20    O    18     5.84367
            H     9    H    13     3.19021


          SCF CALCULATIONS        =        134
          COMPUTATION TIME        =          0.855 SECONDS




   ATOM   CHEMICAL          X               Y               Z
  NUMBER   SYMBOL      (ANGSTROMS)     (ANGSTROMS)     (ANGSTROMS)
 
     1       C         -0.45028031  *   0.23759160  *  -0.71511505  *
     2       C          0.78327310  *   0.51397117  *   0.20935066  *
     3       C         -1.76348244  *   0.00380552  *  -0.00154648  *
     4       C          0.96267650  *   1.91098224  *  -0.44386333  *
     5       C         -1.82467933  *  -1.37791084  *   0.61109512  *
     6       C         -0.26536227  *   1.64211675  *  -1.30676091  *
     7       C          1.90839871  *  -0.43100142  *   0.00131362  *
     8       C          2.12399014  *  -1.46609343  *   0.80544324  *
     9       H         -0.26282849  *  -0.56932852  *  -1.45611119  *
    10       H          0.50856249  *   0.57191540  *   1.28491526  *
    11       H         -1.91501098  *   0.77265045  *   0.78237175  *
    12       H         -2.59534739  *   0.13979226  *  -0.72060445  *
    13       H          0.86551082  *   2.76099124  *   0.24826524  *
    14       H          1.89967287  *   2.05206822  *  -1.00555645  *
    15       H         -0.99798343  *  -1.54173747  *   1.31737792  *
    16       H         -1.76034817  *  -2.16403983  *  -0.15291955  *
    17       H         -2.76317326  *  -1.52789733  *   1.15940824  *
    18       O         -0.85967248  *   2.28392692  *  -2.13046105  *
    19       H          2.55525785  *  -0.24015981  *  -0.86393946  *
    20       H          2.93881959  *  -2.16706480  *   0.65285830  *
    21       H          1.49977875  *  -1.68738883  *   1.66812849  *

           Empirical Formula: C8 H12 O  =    21 atoms



      MOLECULAR POINT GROUP   :   C1  


                  EIGENVALUES  
 -41.57105 -36.57895 -34.01623 -31.45428 -25.77604 -23.39151 -21.63113 -20.17385
 -18.51710 -17.42007 -16.59471 -16.33240 -15.82610 -15.27543 -14.64895 -14.21414
 -13.88167 -13.37245 -12.84569 -12.67480 -12.55172 -12.07820 -11.87009 -10.48817
 -10.34913   0.80766   0.83055   2.29290   2.94622   3.18050   3.35920   3.43045
   3.53983   3.68815   3.70754   3.86013   3.93029   3.96168   4.12531   4.21151
   4.33266   4.43250   4.73577   4.78882   4.85078   5.38898   5.60149   7.08788


              NET ATOMIC CHARGES AND DIPOLE CONTRIBUTIONS

  ATOM NO.   TYPE          CHARGE      No. of ELECS.   s-Pop       p-Pop       
    1          C          -0.150025        4.1500     1.20968     2.94035
    2          C          -0.051666        4.0517     1.18087     2.87080
    3          C          -0.077944        4.0779     1.15290     2.92505
    4          C          -0.171648        4.1716     1.18859     2.98306
    5          C          -0.113378        4.1134     1.13893     2.97445
    6          C           0.284593        3.7154     1.22668     2.48873
    7          C          -0.136841        4.1368     1.19355     2.94329
    8          C          -0.151497        4.1515     1.18323     2.96827
    9          H           0.097264        0.9027     0.90274
   10          H           0.084563        0.9154     0.91544
   11          H           0.051708        0.9483     0.94829
   12          H           0.061407        0.9386     0.93859
   13          H           0.081403        0.9186     0.91860
   14          H           0.084175        0.9158     0.91583
   15          H           0.040569        0.9594     0.95943
   16          H           0.040948        0.9591     0.95905
   17          H           0.041175        0.9588     0.95883
   18          O          -0.281449        6.2814     1.85636     4.42509
   19          H           0.102074        0.8979     0.89793
   20          H           0.081669        0.9183     0.91833
   21          H           0.082900        0.9171     0.91710
 DIPOLE           X         Y         Z       TOTAL
 POINT-CHG.     0.855    -1.177     1.471     2.069
 HYBRID         0.253    -0.203     0.229     0.397
 SUM            1.107    -1.381     1.700     2.454


          ATOMIC ORBITAL ELECTRON POPULATIONS

    Atom      s        px        py        pz   
    1  C   1.20968   0.96047   0.99453   0.98535
    2  C   1.18087   0.94218   0.93739   0.99123
    3  C   1.15290   0.95377   0.97477   0.99651
    4  C   1.18859   1.00314   0.97812   1.00180
    5  C   1.13893   1.01123   0.96041   1.00281
    6  C   1.22668   0.83259   0.86828   0.78786
    7  C   1.19355   0.97799   0.97057   0.99473
    8  C   1.18323   1.00443   0.97365   0.99019
    9  H   0.90274
   10  H   0.91544
   11  H   0.94829
   12  H   0.93859
   13  H   0.91860
   14  H   0.91583
   15  H   0.95943
   16  H   0.95905
   17  H   0.95883
   18  O   1.85636   1.53127   1.60799   1.28583
   19  H   0.89793
   20  H   0.91833
   21  H   0.91710
 *******************************************************************************
 ** Site#: 14399           For non-commercial use only        Version 13.159M **
 *******************************************************************************
 ** Cite this work as: MOPAC2012, James J. P. Stewart, Stewart Computational  **
 ** Chemistry, Version 13.159M web: HTTP://OpenMOPAC.net  Days remaining:   6 **
 *******************************************************************************
 **                                                                           **
 **                                MOPAC2012                                  **
 **                                                                           **
 *******************************************************************************

                            PM3 CALCULATION RESULTS


 *******************************************************************************
 *  CALCULATION DONE:                                Mon Jun  2 14:11:14 2014  *
 *  PM3      - The PM3 Hamiltonian to be used
 *  OLDGEO   - PREVIOUS GEOMETRY TO BE USED
 *  PRECISE  - CRITERIA TO BE INCREASED BY 100 TIMES
 *  NOSYM    - POINT-GROUP SYMMETRY SET TO C1
 *  T=       - A TIME OF 172800.0 SECONDS REQUESTED
 *  DUMP=N   - RESTART FILE WRITTEN EVERY  7200.000 SECONDS
 *  THERMO   - THERMODYNAMIC QUANTITIES TO BE CALCULATED
 *******************************************************************************
oldgeo thermo nosym precise  pm3

   ATOM   CHEMICAL          X               Y               Z
  NUMBER   SYMBOL      (ANGSTROMS)     (ANGSTROMS)     (ANGSTROMS)
 
     1       C         -0.45028031  *   0.23759160  *  -0.71511505  *
     2       C          0.78327310  *   0.51397117  *   0.20935066  *
     3       C         -1.76348244  *   0.00380552  *  -0.00154648  *
     4       C          0.96267650  *   1.91098224  *  -0.44386333  *
     5       C         -1.82467933  *  -1.37791084  *   0.61109512  *
     6       C         -0.26536227  *   1.64211675  *  -1.30676091  *
     7       C          1.90839871  *  -0.43100142  *   0.00131362  *
     8       C          2.12399014  *  -1.46609343  *   0.80544324  *
     9       H         -0.26282849  *  -0.56932852  *  -1.45611119  *
    10       H          0.50856249  *   0.57191540  *   1.28491526  *
    11       H         -1.91501098  *   0.77265045  *   0.78237175  *
    12       H         -2.59534739  *   0.13979226  *  -0.72060445  *
    13       H          0.86551082  *   2.76099124  *   0.24826524  *
    14       H          1.89967287  *   2.05206822  *  -1.00555645  *
    15       H         -0.99798343  *  -1.54173747  *   1.31737792  *
    16       H         -1.76034817  *  -2.16403983  *  -0.15291955  *
    17       H         -2.76317326  *  -1.52789733  *   1.15940824  *
    18       O         -0.85967248  *   2.28392692  *  -2.13046105  *
    19       H          2.55525785  *  -0.24015981  *  -0.86393946  *
    20       H          2.93881959  *  -2.16706480  *   0.65285830  *
    21       H          1.49977875  *  -1.68738883  *   1.66812849  *
 


          CARTESIAN COORDINATES 

    NO.       ATOM         X         Y         Z

     1         C       -0.4503    0.2376   -0.7151
     2         C        0.7833    0.5140    0.2094
     3         C       -1.7635    0.0038   -0.0015
     4         C        0.9627    1.9110   -0.4439
     5         C       -1.8247   -1.3779    0.6111
     6         C       -0.2654    1.6421   -1.3068
     7         C        1.9084   -0.4310    0.0013
     8         C        2.1240   -1.4661    0.8054
     9         H       -0.2628   -0.5693   -1.4561
    10         H        0.5086    0.5719    1.2849
    11         H       -1.9150    0.7727    0.7824
    12         H       -2.5953    0.1398   -0.7206
    13         H        0.8655    2.7610    0.2483
    14         H        1.8997    2.0521   -1.0056
    15         H       -0.9980   -1.5417    1.3174
    16         H       -1.7603   -2.1640   -0.1529
    17         H       -2.7632   -1.5279    1.1594
    18         O       -0.8597    2.2839   -2.1305
    19         H        2.5553   -0.2402   -0.8639
    20         H        2.9388   -2.1671    0.6529
    21         H        1.4998   -1.6874    1.6681

  H: (PM3): J. J. P. STEWART, J. COMP. CHEM. 10, 209 (1989).
  C: (PM3): J. J. P. STEWART, J. COMP. CHEM. 10, 209 (1989).
  O: (PM3): J. J. P. STEWART, J. COMP. CHEM. 10, 209 (1989).

           Empirical Formula: C8 H12 O  =    21 atoms



      MOLECULAR POINT GROUP   :   C1  


      RHF CALCULATION, NO. OF DOUBLY OCCUPIED LEVELS =   25



          HEAT OF FORMATION =     -25.129761 KCALS/MOLE


          INTERNAL COORDINATE DERIVATIVES

   NUMBER  ATOM       BOND         ANGLE      DIHEDRAL

     1       C      0.002614    -0.004710     0.004352
     2       C      0.000101    -0.001230    -0.001256
     3       C     -0.000839    -0.001416     0.001803
     4       C     -0.001048     0.006731    -0.005433
     5       C     -0.001066    -0.009014     0.005447
     6       C     -0.002720    -0.001508     0.003024
     7       C     -0.012752     0.000757    -0.007956
     8       C      0.014602     0.021634     0.007626
     9       H     -0.001437     0.003490     0.000339
    10       H      0.003036    -0.001541     0.001369
    11       H      0.003827     0.002652    -0.004438
    12       H      0.004848     0.001552    -0.002513
    13       H     -0.001406     0.001147    -0.002900
    14       H     -0.003267    -0.004380     0.001639
    15       H     -0.007032     0.001348     0.000891
    16       H     -0.011733     0.009029    -0.005260
    17       H      0.004432    -0.002643     0.004243
    18       O      0.001473     0.000547    -0.001228
    19       H      0.007485    -0.013328    -0.003402
    20       H      0.000522     0.002632     0.003538
    21       H      0.000359    -0.011750     0.000113


          GRADIENT NORM =   0.04611


          TIME FOR SCF CALCULATION =    0.00

          TIME FOR DERIVATIVES     =    0.00

          MOLECULAR WEIGHT =  124.18



          ROTATIONAL CONSTANTS IN CM(-1)

          A =    0.06499622   B =    0.04648960   C =    0.02963332



           PRINCIPAL MOMENTS OF INERTIA IN UNITS OF 10**(-40)*GRAM-CM**2

          A =      430.6831   B =      602.1299   C =      944.6386


          ORIENTATION OF MOLECULE IN FORCE CALCULATION

    NO.       ATOM         X         Y         Z

     1          C      -0.6282   -0.0159    0.0183
     2          C       0.9379   -0.0159    0.0183
     3          C      -1.2826    1.3479    0.0183
     4          C       0.9402   -0.7688   -1.3395
     5          C      -1.2130    1.9976    1.3826
     6          C      -0.5839   -0.7231   -1.3437
     7          C       1.5346   -0.7599    1.1553
     8          C       1.9964   -0.1477    2.2399
     9          H      -1.0603   -0.6532    0.8199
    10          H       1.3667    1.0071   -0.0541
    11          H      -0.8035    2.0020   -0.7375
    12          H      -2.3383    1.2428   -0.3011
    13          H       1.4222   -0.2276   -2.1676
    14          H       1.3716   -1.7821   -1.3161
    15          H      -0.1738    2.0978    1.7278
    16          H      -1.7520    1.4120    2.1391
    17          H      -1.6550    3.0018    1.3671
    18          O      -1.4250   -1.0954   -2.1167
    19          H       1.5670   -1.8526    1.0631
    20          H       2.4244   -0.6866    3.0796
    21          H       1.9749    0.9323    2.3662


    FIRST DERIVATIVES WILL BE USED IN THE CALCULATION OF SECOND DERIVATIVES

          ESTIMATED TIME TO COMPLETE CALCULATION =        2.19 SECONDS

    FOR POINT-GROUP C1   THERE ARE   1 UNIQUE SYMMETRY FUNCTIONS.

 STEP:   1 TIME =     0.03 SECS, INTEGRAL =      0.03 TIME LEFT: 172799.96
 STEP:   2 TIME =     0.03 SECS, INTEGRAL =      0.06 TIME LEFT: 172799.94
 STEP:   3 TIME =     0.03 SECS, INTEGRAL =      0.08 TIME LEFT: 172799.91
 STEP:   4 TIME =     0.03 SECS, INTEGRAL =      0.11 TIME LEFT: 172799.88
 STEP:   5 TIME =     0.03 SECS, INTEGRAL =      0.14 TIME LEFT: 172799.85
 STEP:   6 TIME =     0.03 SECS, INTEGRAL =      0.17 TIME LEFT: 172799.82
 STEP:   7 TIME =     0.03 SECS, INTEGRAL =      0.20 TIME LEFT: 172799.79
 STEP:   8 TIME =     0.03 SECS, INTEGRAL =      0.23 TIME LEFT: 172799.77
 STEP:   9 TIME =     0.03 SECS, INTEGRAL =      0.25 TIME LEFT: 172799.74
 STEP:  10 TIME =     0.03 SECS, INTEGRAL =      0.28 TIME LEFT: 172799.71
 STEP:  11 TIME =     0.03 SECS, INTEGRAL =      0.31 TIME LEFT: 172799.68
 STEP:  12 TIME =     0.03 SECS, INTEGRAL =      0.34 TIME LEFT: 172799.66
 STEP:  13 TIME =     0.03 SECS, INTEGRAL =      0.36 TIME LEFT: 172799.63
 STEP:  14 TIME =     0.03 SECS, INTEGRAL =      0.40 TIME LEFT: 172799.60
 STEP:  15 TIME =     0.03 SECS, INTEGRAL =      0.42 TIME LEFT: 172799.57
 STEP:  16 TIME =     0.03 SECS, INTEGRAL =      0.45 TIME LEFT: 172799.54
 STEP:  17 TIME =     0.03 SECS, INTEGRAL =      0.48 TIME LEFT: 172799.51
 STEP:  18 TIME =     0.03 SECS, INTEGRAL =      0.50 TIME LEFT: 172799.49
 STEP:  19 TIME =     0.03 SECS, INTEGRAL =      0.53 TIME LEFT: 172799.46
 STEP:  20 TIME =     0.03 SECS, INTEGRAL =      0.56 TIME LEFT: 172799.43
 STEP:  21 TIME =     0.03 SECS, INTEGRAL =      0.59 TIME LEFT: 172799.40
 STEP:  22 TIME =     0.03 SECS, INTEGRAL =      0.61 TIME LEFT: 172799.38
 STEP:  23 TIME =     0.03 SECS, INTEGRAL =      0.64 TIME LEFT: 172799.35
 STEP:  24 TIME =     0.03 SECS, INTEGRAL =      0.67 TIME LEFT: 172799.32
 STEP:  25 TIME =     0.03 SECS, INTEGRAL =      0.70 TIME LEFT: 172799.29
 STEP:  26 TIME =     0.03 SECS, INTEGRAL =      0.73 TIME LEFT: 172799.26
 STEP:  27 TIME =     0.03 SECS, INTEGRAL =      0.76 TIME LEFT: 172799.23
 STEP:  28 TIME =     0.03 SECS, INTEGRAL =      0.78 TIME LEFT: 172799.21
 STEP:  29 TIME =     0.03 SECS, INTEGRAL =      0.82 TIME LEFT: 172799.17
 STEP:  30 TIME =     0.03 SECS, INTEGRAL =      0.85 TIME LEFT: 172799.14
 STEP:  31 TIME =     0.03 SECS, INTEGRAL =      0.87 TIME LEFT: 172799.12
 STEP:  32 TIME =     0.03 SECS, INTEGRAL =      0.91 TIME LEFT: 172799.08
 STEP:  33 TIME =     0.03 SECS, INTEGRAL =      0.94 TIME LEFT: 172799.05
 STEP:  34 TIME =     0.04 SECS, INTEGRAL =      0.98 TIME LEFT: 172799.02
 STEP:  35 TIME =     0.04 SECS, INTEGRAL =      1.01 TIME LEFT: 172798.98
 STEP:  36 TIME =     0.03 SECS, INTEGRAL =      1.04 TIME LEFT: 172798.95
 STEP:  37 TIME =     0.04 SECS, INTEGRAL =      1.08 TIME LEFT: 172798.91
 STEP:  38 TIME =     0.03 SECS, INTEGRAL =      1.11 TIME LEFT: 172798.88
 STEP:  39 TIME =     0.03 SECS, INTEGRAL =      1.15 TIME LEFT: 172798.84
 STEP:  40 TIME =     0.03 SECS, INTEGRAL =      1.17 TIME LEFT: 172798.82
 STEP:  41 TIME =     0.03 SECS, INTEGRAL =      1.20 TIME LEFT: 172798.79
 STEP:  42 TIME =     0.03 SECS, INTEGRAL =      1.23 TIME LEFT: 172798.76
 STEP:  43 TIME =     0.03 SECS, INTEGRAL =      1.26 TIME LEFT: 172798.73
 STEP:  44 TIME =     0.03 SECS, INTEGRAL =      1.28 TIME LEFT: 172798.71
 STEP:  45 TIME =     0.03 SECS, INTEGRAL =      1.31 TIME LEFT: 172798.68
 STEP:  46 TIME =     0.03 SECS, INTEGRAL =      1.34 TIME LEFT: 172798.65
 STEP:  47 TIME =     0.03 SECS, INTEGRAL =      1.38 TIME LEFT: 172798.61
 STEP:  48 TIME =     0.03 SECS, INTEGRAL =      1.40 TIME LEFT: 172798.59
 STEP:  49 TIME =     0.03 SECS, INTEGRAL =      1.43 TIME LEFT: 172798.56
 STEP:  50 TIME =     0.04 SECS, INTEGRAL =      1.47 TIME LEFT: 172798.52
 STEP:  51 TIME =     0.03 SECS, INTEGRAL =      1.50 TIME LEFT: 172798.49
 STEP:  52 TIME =     0.03 SECS, INTEGRAL =      1.53 TIME LEFT: 172798.46
 STEP:  53 TIME =     0.03 SECS, INTEGRAL =      1.56 TIME LEFT: 172798.43
 STEP:  54 TIME =     0.04 SECS, INTEGRAL =      1.60 TIME LEFT: 172798.39
 STEP:  55 TIME =     0.03 SECS, INTEGRAL =      1.63 TIME LEFT: 172798.36
 STEP:  56 TIME =     0.03 SECS, INTEGRAL =      1.66 TIME LEFT: 172798.33
 STEP:  57 TIME =     0.03 SECS, INTEGRAL =      1.70 TIME LEFT: 172798.30
 STEP:  58 TIME =     0.03 SECS, INTEGRAL =      1.73 TIME LEFT: 172798.26
 STEP:  59 TIME =     0.03 SECS, INTEGRAL =      1.75 TIME LEFT: 172798.24
 STEP:  60 TIME =     0.03 SECS, INTEGRAL =      1.78 TIME LEFT: 172798.21
 STEP:  61 TIME =     0.03 SECS, INTEGRAL =      1.81 TIME LEFT: 172798.18
 STEP:  62 TIME =     0.03 SECS, INTEGRAL =      1.84 TIME LEFT: 172798.15
 STEP:  63 TIME =     0.03 SECS, INTEGRAL =      1.87 TIME LEFT: 172798.13

(To convert to Hartree/Bohr^2, multiply by (10^(-21) x N x a0^2)/(4.184 x 627.51) = 0.0642)


           FORCE MATRIX IN MILLIDYNES/ANGSTROM


                  C  1       C  2       C  3       C  4       C  5       C  6
 ------------------------------------------------------------------------------
     C    1  14.009949
     C    2   2.868583  14.711530
     C    3   4.323380   0.523517  14.469668
     C    4   1.833332   3.300437   0.060963  14.086815
     C    5   0.684905   0.029369   4.449571   0.013312  14.356168
     C    6   3.217609   2.047829   0.550604   3.523149   0.058155  21.421355
     C    7   0.579971   5.056908   0.032290   0.571953   0.003861   0.068653
     C    8   0.027978   0.865187   0.003689   0.046376   0.006600   0.006169
     H    9   4.411594   0.435336   0.434754   0.050831   0.029829   0.415655
     H   10   0.437746   4.394603   0.030321   0.424411   0.008504   0.042758
     H   11   0.447696   0.023274   4.447217   0.002089   0.437909   0.020160
     H   12   0.429926   0.045858   4.475978   0.002251   0.437837   0.030984
     H   13   0.055399   0.438524   0.011403   4.705923   0.002468   0.442280
     H   14   0.054684   0.447092   0.003275   4.666746   0.000779   0.440775
     H   15   0.021083   0.007858   0.463955   0.001029   4.679170   0.005454
     H   16   0.021467   0.002319   0.464189   0.000886   4.730112   0.003764
     H   17   0.054942   0.002240   0.448365   0.002596   4.761019   0.011413
     O   18   0.874097   0.037465   0.055406   0.909300   0.017691  15.145663
     H   19   0.011457   0.440054   0.001505   0.030582   0.000632   0.010043
     H   20   0.019183   0.138571   0.002058   0.012141   0.000284   0.006278
     H   21   0.013586   0.102021   0.002004   0.005844   0.008442   0.003334


                  C  7       C  8       H  9       H 10       H 11       H 12
 ------------------------------------------------------------------------------
     C    7  18.260179
     C    8  11.044656  18.009465
     H    9   0.032100   0.004325   4.906736
     H   10   0.433556   0.046738   0.028688   4.891744
     H   11   0.000968   0.000488   0.042883   0.025942   5.055904
     H   12   0.006144   0.001186   0.025346   0.002978   0.564694   5.073252
     H   13   0.032647   0.005444   0.003129   0.027616   0.000670   0.000992
     H   14   0.030111   0.003639   0.009425   0.029773   0.000522   0.000559
     H   15   0.002372   0.006552   0.002340   0.011193   0.022849   0.048332
     H   16   0.000748   0.000567   0.020059   0.000517   0.048273   0.025946
     H   17   0.000536   0.000926   0.002355   0.000594   0.031679   0.027877
     O   18   0.017085   0.008581   0.049304   0.008074   0.004243   0.009799
     H   19   4.783762   0.454572   0.004163   0.032864   0.000481   0.000454
     H   20   0.460399   5.112147   0.001197   0.005299   0.000198   0.000407
     H   21   0.492462   5.046338   0.001024   0.026096   0.000299   0.000641


                  H 13       H 14       H 15       H 16       H 17       O 18
 ------------------------------------------------------------------------------
     H   13   5.319839
     H   14   0.552115   5.289499
     H   15   0.000226   0.000250   5.415746
     H   16   0.000277   0.000097   0.574845   5.469622
     H   17   0.000446   0.000187   0.566084   0.572488   5.491512
     O   18   0.048843   0.048395   0.003544   0.002555   0.004244  16.630390
     H   19   0.001802   0.029637   0.000340   0.000337   0.000133   0.004987
     H   20   0.001661   0.000863   0.000629   0.000277   0.000243   0.003135
     H   21   0.000963   0.000658   0.009603   0.000528   0.000563   0.002958


                  H 19       H 20       H 21
 ------------------------------------------
     H   19   5.152183
     H   20   0.081404   5.493499
     H   21   0.121282   0.418481   5.436564


          HEAT OF FORMATION =     -25.129761 KCALS/MOLE

          ZERO POINT ENERGY     112.767 KCAL/MOL


           NORMAL COORDINATE ANALYSIS (Total motion = 1 Angstrom)


   Root No.       1         2         3         4         5         6         7         8

                 1 A       2 A       3 A       4 A       5 A       6 A       7 A       8 A   

                  48.9      79.1      93.4     156.6     186.0     274.8     284.6     333.1
  
           1   -0.0192   -0.0082   -0.0143    0.0076   -0.0082   -0.0336    0.0011    0.0042
           2   -0.0031    0.0027   -0.0209   -0.0156   -0.0162   -0.0053   -0.0316   -0.0089
           3   -0.0039    0.0069   -0.0005    0.0229    0.0096    0.0003    0.0139    0.0136
           4   -0.0196   -0.0082   -0.0143    0.0084   -0.0073   -0.0326   -0.0021    0.0039
           5   -0.0052    0.0190   -0.0007   -0.0116   -0.0014   -0.0109   -0.0212   -0.0289
           6    0.0214    0.0139    0.0048    0.0098    0.0074    0.0239    0.0135   -0.0052
           7   -0.0159   -0.0183   -0.0308   -0.0176   -0.0095    0.0190    0.0352    0.0108
           8   -0.0017   -0.0016   -0.0292   -0.0269   -0.0163    0.0229   -0.0169   -0.0019
           9   -0.0041   -0.0087    0.0186   -0.0083    0.0007   -0.0069   -0.0166    0.0475
          10    0.0015    0.0065    0.0003   -0.0029   -0.0029   -0.0164   -0.0004   -0.0001
          11   -0.0096    0.0547    0.0017   -0.0147    0.0084    0.0065    0.0395    0.0003
          12    0.0238   -0.0059    0.0039    0.0102    0.0022    0.0166   -0.0204   -0.0145
          13   -0.0150    0.0059    0.0678   -0.0357    0.0082    0.0071    0.0085   -0.0224
          14   -0.0048    0.0311    0.0056    0.0284    0.0039    0.0017   -0.0169    0.0566
          15   -0.0025   -0.0257   -0.0029   -0.0360   -0.0103    0.0048   -0.0179    0.0248
          16    0.0019    0.0051    0.0000   -0.0014   -0.0030   -0.0153   -0.0039    0.0016
          17    0.0033    0.0017   -0.0021    0.0012   -0.0027   -0.0014   -0.0012    0.0026
          18   -0.0067    0.0076   -0.0102    0.0141    0.0025   -0.0057    0.0020   -0.0050
          19   -0.0383   -0.0110   -0.0088    0.0401    0.0157    0.0297   -0.0087   -0.0051
          20   -0.0043   -0.0166    0.0103   -0.0102    0.0033   -0.0004   -0.0144   -0.0341
          21    0.0313   -0.0074    0.0089   -0.0052   -0.0018   -0.0018    0.0210   -0.0057
          22    0.0842    0.0144   -0.0180    0.0189    0.0038    0.0162   -0.0064   -0.0165
          23    0.0070   -0.0509    0.0204   -0.0159    0.0042    0.0029    0.0276    0.0181
          24   -0.0272    0.0009    0.0072    0.0069    0.0029    0.0026   -0.0021   -0.0303
          25   -0.0326   -0.0080   -0.0072    0.0166   -0.0063   -0.0628   -0.0121    0.0060
          26   -0.0076    0.0051   -0.0375   -0.0135   -0.0163    0.0029   -0.0231   -0.0204
          27   -0.0145    0.0086   -0.0099    0.0284    0.0093   -0.0108    0.0119    0.0049
          28   -0.0184   -0.0155   -0.0286    0.0006   -0.0201   -0.0468   -0.0113    0.0103
          29   -0.0053    0.0242    0.0055   -0.0088    0.0045   -0.0029   -0.0139   -0.0301
          30    0.0230    0.0481    0.0046    0.0043    0.0104    0.0305    0.0394    0.0043
          31   -0.0124   -0.0387   -0.0968   -0.0348   -0.0133    0.0703    0.0804    0.0111
          32   -0.0020   -0.0156   -0.0417   -0.0417   -0.0298    0.0134   -0.0332   -0.0078
          33   -0.0022   -0.0337   -0.0339   -0.0323   -0.0139    0.0168   -0.0031    0.0420
          34   -0.0155   -0.0242   -0.0540   -0.0161   -0.0128    0.0247    0.0440    0.0118
          35    0.0022   -0.0164   -0.0497   -0.0635   -0.0150    0.0743    0.0115   -0.0085
          36   -0.0062    0.0158    0.1023   -0.0032    0.0115   -0.0413   -0.0546    0.0446
          37    0.0238   -0.0222    0.0078    0.0020   -0.0072   -0.0076   -0.0353   -0.0055
          38   -0.0176    0.0969    0.0031   -0.0238    0.0178    0.0187    0.1036    0.0192
          39    0.0317    0.0048    0.0092    0.0073    0.0058    0.0296    0.0003   -0.0059
          40   -0.0083    0.0453    0.0015   -0.0148    0.0046   -0.0129    0.0372    0.0011
          41   -0.0135    0.0706    0.0023   -0.0199    0.0114    0.0076    0.0556    0.0003
          42    0.0376   -0.0391    0.0075    0.0128   -0.0052    0.0081   -0.0793   -0.0412
          43   -0.0151    0.0123    0.0942   -0.0361    0.0005    0.0057    0.0031   -0.0334
          44   -0.0153    0.0461    0.0468    0.1119   -0.1868    0.0290    0.0111    0.0849
          45    0.0010   -0.0492   -0.0940   -0.0597    0.0695    0.0011   -0.0097    0.0474
          46   -0.0229    0.0255    0.1517    0.0179   -0.1648    0.0304    0.0187   -0.0397
          47   -0.0015    0.0454    0.0070    0.0217    0.1265   -0.0298   -0.0331    0.0946
          48   -0.0056   -0.0007    0.0579   -0.0031   -0.0393   -0.0027   -0.0230    0.0409
          49   -0.0059   -0.0010    0.0355   -0.1042    0.2038   -0.0254   -0.0190   -0.0304
          50   -0.0008    0.0278   -0.0084   -0.0021    0.0891   -0.0123   -0.0292    0.0533
          51   -0.0020   -0.0405    0.0110   -0.0678   -0.0702    0.0263   -0.0203   -0.0420
          52    0.0147    0.0111    0.0097   -0.0091    0.0005    0.0120   -0.0218    0.0257
          53    0.0168   -0.0386    0.0120    0.0543    0.0115   -0.0193    0.0181   -0.0182
          54   -0.0271    0.0205   -0.0275   -0.0033   -0.0082   -0.0273    0.0121   -0.0207
          55   -0.1593   -0.0355    0.0024    0.0902    0.0483    0.1233   -0.0266   -0.0111
          56   -0.0127   -0.0154    0.0103   -0.0068    0.0053    0.0054   -0.0163   -0.0352
          57    0.0889   -0.0312    0.0138   -0.0299   -0.0143   -0.0381    0.0513    0.0201
          58    0.0738    0.0124   -0.0153    0.0481    0.0242    0.0957   -0.0160   -0.0209
          59    0.0083   -0.0789    0.0288   -0.0167    0.0067    0.0120    0.0642    0.0694
          60   -0.0212   -0.0160    0.0112   -0.0085   -0.0058   -0.0319    0.0260    0.0039
          61    0.2023    0.0383   -0.0281   -0.0309   -0.0259   -0.0753    0.0046   -0.0259
          62    0.0159   -0.0533    0.0209   -0.0199    0.0021   -0.0033    0.0342    0.0257
          63   -0.0845    0.0250    0.0018    0.0327    0.0164    0.0415   -0.0521   -0.0906


   Root No.       9        10        11        12        13        14        15        16

                 9 A      10 A      11 A      12 A      13 A      14 A      15 A      16 A   

                 418.3     441.7     521.1     583.2     645.3     701.0     818.9     876.4
  
           1   -0.0030    0.0091   -0.0108    0.0009    0.0260   -0.0389    0.0062    0.0096
           2   -0.0280   -0.0097   -0.0269   -0.0111    0.0068   -0.0149    0.0034    0.0172
           3    0.0261   -0.0262   -0.0156    0.0292    0.0150    0.0173    0.0030   -0.0152
           4   -0.0047    0.0103   -0.0258    0.0071    0.0048   -0.0214   -0.0229   -0.0012
           5    0.0339   -0.0195    0.0168    0.0118    0.0038   -0.0427   -0.0137   -0.0067
           6   -0.0199   -0.0071    0.0040    0.0043   -0.0092   -0.0223    0.0062    0.0080
           7    0.0338    0.0093    0.0203    0.0120    0.0137   -0.0209    0.0335    0.0025
           8   -0.0131   -0.0103   -0.0164   -0.0217   -0.0149    0.0103    0.0077   -0.0173
           9    0.0111    0.0199    0.0154   -0.0029    0.0012   -0.0034   -0.0061    0.0095
          10   -0.0141   -0.0088    0.0370   -0.0282   -0.0169    0.0078   -0.0023   -0.0107
          11   -0.0014    0.0011   -0.0038    0.0140   -0.0011   -0.0227   -0.0067   -0.0219
          12    0.0007   -0.0348    0.0144    0.0111   -0.0167   -0.0449    0.0035    0.0360
          13    0.0017   -0.0091   -0.0003    0.0039    0.0022   -0.0020    0.0077   -0.0006
          14    0.0086    0.0210    0.0116   -0.0146   -0.0087    0.0026   -0.0006   -0.0132
          15    0.0034    0.0074    0.0046   -0.0168   -0.0074   -0.0005   -0.0027   -0.0044
          16   -0.0143   -0.0125    0.0297   -0.0183   -0.0086    0.0298    0.0014   -0.0047
          17   -0.0395    0.0172    0.0069    0.0754    0.0240    0.0276    0.0051    0.0221
          18    0.0251   -0.0492   -0.0311   -0.0090    0.0095    0.0232    0.0019   -0.0010
          19   -0.0148    0.0147   -0.0196    0.0162   -0.0565   -0.0041   -0.0020   -0.0058
          20    0.0411    0.0362    0.0101   -0.0020    0.0059    0.0251    0.0099    0.0093
          21   -0.0173    0.0382   -0.0152   -0.0133    0.0213   -0.0062   -0.0083   -0.0099
          22   -0.0028    0.0283   -0.0056   -0.0065    0.0026    0.0014   -0.0029   -0.0059
          23   -0.0129   -0.0048   -0.0032   -0.0006    0.0016    0.0033    0.0041    0.0072
          24    0.0063    0.0605   -0.0169   -0.0055   -0.0020    0.0043   -0.0069   -0.0135
          25    0.0260    0.0040   -0.0307    0.0078    0.0530   -0.0764   -0.0287   -0.0016
          26   -0.0136   -0.0388   -0.0585   -0.0357    0.0066   -0.0136    0.0211   -0.0206
          27    0.0517   -0.0521   -0.0520    0.0122    0.0314   -0.0033   -0.0004   -0.0495
          28   -0.0262    0.0088   -0.0572   -0.0045    0.0456   -0.0458   -0.0457    0.0414
          29    0.0407   -0.0196    0.0314    0.0165   -0.0148   -0.0352   -0.0029   -0.0250
          30   -0.0368   -0.0210    0.0162    0.0019   -0.0213   -0.0600    0.0058   -0.0196
          31    0.0857   -0.0014    0.0529    0.0363   -0.0057    0.0379   -0.1201    0.0347
          32   -0.0333   -0.0043   -0.0253   -0.0425   -0.0157   -0.0093    0.0051    0.0074
          33    0.0249    0.0178    0.0265   -0.0071   -0.0116    0.0155   -0.0998    0.0485
          34    0.0430    0.0077    0.0240    0.0184    0.0147   -0.0147   -0.0038    0.0189
          35    0.0238   -0.0193    0.0151   -0.0180   -0.0502    0.0702   -0.0958   -0.0223
          36   -0.0293    0.0262   -0.0063   -0.0256    0.0080   -0.0410    0.1380   -0.0408
          37   -0.0546    0.0070    0.1084    0.0825   -0.0114    0.0040   -0.0019   -0.0865
          38   -0.0123    0.0162   -0.0477   -0.0876   -0.0193    0.0008    0.0300    0.1070
          39   -0.0302   -0.0158    0.0298    0.0138   -0.0248   -0.0338    0.0270    0.0712
          40    0.0205   -0.0313    0.0083   -0.1693   -0.0559   -0.0200    0.0082    0.0717
          41    0.0138   -0.0081   -0.0166   -0.0486   -0.0178   -0.0356   -0.0018    0.0156
          42    0.0207   -0.0589    0.0785    0.0714   -0.0219   -0.1086   -0.0285   -0.0766
          43   -0.0075   -0.0161   -0.0090    0.0029   -0.0024    0.0107   -0.0349    0.0097
          44    0.0380    0.0406    0.0380   -0.0090   -0.0014   -0.0154    0.0259    0.0070
          45    0.0219    0.0211    0.0220   -0.0148    0.0039   -0.0313    0.1085   -0.0390
          46   -0.0015   -0.0184   -0.0087    0.0031   -0.0050    0.0158   -0.0487    0.0121
          47    0.0134    0.0430    0.0315   -0.0122   -0.0052   -0.0020   -0.0576    0.0462
          48    0.0046    0.0171    0.0132   -0.0154   -0.0096    0.0082   -0.0829    0.0477
          49   -0.0195   -0.0167   -0.0125    0.0000   -0.0026    0.0110   -0.0416    0.0077
          50   -0.0009    0.0179    0.0065   -0.0169   -0.0113    0.0084   -0.0223   -0.0097
          51   -0.0269   -0.0340   -0.0392   -0.0287   -0.0232    0.0280   -0.0026   -0.0746
          52    0.0132   -0.0324   -0.0240    0.0156    0.0161    0.0395    0.0049    0.0036
          53    0.0076   -0.0229    0.0060   -0.0224   -0.0051    0.0131    0.0010   -0.0015
          54   -0.0279   -0.0131    0.0294    0.0018   -0.0012    0.0356    0.0033    0.0034
          55   -0.0665    0.0035    0.0019   -0.0274    0.0028    0.0058    0.0195    0.0301
          56    0.0386    0.0336    0.0123   -0.0044    0.0103    0.0229    0.0105    0.0114
          57   -0.0209    0.0529   -0.0389   -0.0002   -0.0115    0.0123   -0.0111   -0.0257
          58   -0.0588   -0.0002    0.0471   -0.1010    0.2501   -0.0244   -0.0417   -0.0366
          59   -0.0755   -0.0598   -0.0152   -0.0010    0.0044   -0.0604   -0.0397   -0.0552
          60   -0.0047    0.0418   -0.0517    0.0420   -0.1261   -0.0218   -0.0148   -0.0377
          61    0.0672    0.0744   -0.0412    0.0556   -0.1484    0.0446    0.0389    0.0401
          62   -0.0170   -0.0106   -0.0079    0.0051   -0.0117   -0.0039    0.0008    0.0016
          63    0.0442    0.1091    0.0158   -0.0436    0.0858    0.0596    0.0204    0.0298


   Root No.      17        18        19        20        21        22        23        24

                17 A      18 A      19 A      20 A      21 A      22 A      23 A      24 A   

                 893.8     923.0     958.5     964.3     989.1    1023.7    1028.2    1051.6
  
           1    0.0163    0.0130   -0.0053   -0.0186    0.0198   -0.0062   -0.0040    0.0148
           2   -0.0004    0.0081   -0.0124   -0.0084   -0.0083    0.0090   -0.0059    0.0107
           3    0.0364   -0.0016    0.0135   -0.0155   -0.0012    0.0253   -0.0034    0.0091
           4   -0.0040   -0.0187    0.0118    0.0338   -0.0056   -0.0146    0.0080   -0.0140
           5   -0.0262    0.0056    0.0093   -0.0066    0.0076   -0.0136   -0.0048    0.0140
           6   -0.0043    0.0060   -0.0077   -0.0080    0.0191   -0.0180   -0.0046    0.0226
           7   -0.0095    0.0025   -0.0068   -0.0081    0.0056    0.0021    0.0104   -0.0219
           8    0.0098   -0.0034    0.0026   -0.0008    0.0009    0.0025    0.0041   -0.0019
           9   -0.0050    0.0008    0.0006    0.0010   -0.0012    0.0052   -0.0033    0.0017
          10    0.0262   -0.0026    0.0059    0.0002   -0.0188    0.0272    0.0001   -0.0083
          11    0.0085    0.0036   -0.0158    0.0205   -0.0062   -0.0085    0.0038   -0.0205
          12    0.0094   -0.0205    0.0140    0.0109   -0.0061   -0.0052    0.0067   -0.0140
          13   -0.0082   -0.0021    0.0000    0.0064   -0.0132    0.0021   -0.0071    0.0148
          14    0.0085   -0.0047    0.0171    0.0027    0.0223   -0.0129   -0.0004   -0.0045
          15    0.0013    0.0023   -0.0048   -0.0011   -0.0001   -0.0070    0.0028   -0.0020
          16   -0.0108    0.0048   -0.0025   -0.0065    0.0124   -0.0187   -0.0038    0.0171
          17   -0.0048   -0.0098    0.0154   -0.0042    0.0001    0.0406   -0.0006   -0.0010
          18   -0.0147    0.0020   -0.0103    0.0118   -0.0076   -0.0103    0.0054   -0.0196
          19   -0.0061   -0.0339   -0.0103   -0.0067    0.0017    0.0038    0.0270    0.0142
          20    0.0072   -0.0041    0.0050   -0.0104   -0.0071   -0.0067    0.0037   -0.0084
          21   -0.0073    0.0183    0.0035    0.0039   -0.0001    0.0033   -0.0135   -0.0030
          22   -0.0081   -0.0042   -0.0015   -0.0118   -0.0030   -0.0013   -0.0499   -0.0157
          23    0.0132   -0.0026   -0.0118    0.0173    0.0115   -0.0017   -0.0058    0.0080
          24   -0.0136    0.0063    0.0085   -0.0101   -0.0096    0.0051    0.0241    0.0011
          25    0.0629    0.0218    0.0330   -0.0194   -0.0068   -0.0031   -0.0565    0.0981
          26    0.0552    0.0341   -0.0664   -0.0416   -0.0767    0.0399    0.0036    0.0197
          27    0.1052    0.0249   -0.0092   -0.0432   -0.0693    0.0520   -0.0248    0.0610
          28    0.0102   -0.0138    0.0269    0.0870   -0.0281   -0.0413   -0.0445   -0.0405
          29   -0.0301    0.0053   -0.0007   -0.0283    0.0202   -0.0028    0.0174    0.0291
          30    0.0011    0.0293   -0.0616    0.0270    0.0707   -0.0096   -0.0147    0.0825
          31    0.0042    0.0027    0.0220    0.0131   -0.0031   -0.0027   -0.0326    0.0427
          32    0.0085    0.0262   -0.0665   -0.0451    0.0069    0.0038    0.0490   -0.0502
          33    0.0031    0.0257   -0.0401   -0.0233   -0.0007    0.0026    0.0088   -0.0010
          34    0.0056    0.0140   -0.0155   -0.0290    0.0256    0.0022    0.0174   -0.0315
          35   -0.0170   -0.0301    0.0472    0.0784   -0.0717   -0.0072   -0.0597    0.1083
          36   -0.0418   -0.0263    0.0155    0.0414   -0.0384    0.0059   -0.0065   -0.0014
          37    0.1266    0.0189   -0.0288   -0.0083   -0.0964   -0.1105    0.0082   -0.0363
          38    0.0375   -0.0414    0.0452   -0.0317   -0.0364   -0.0898    0.0097    0.0015
          39    0.0868   -0.0352    0.0302   -0.0267   -0.0697   -0.1407    0.0155   -0.0159
          40    0.0066   -0.0358    0.0562   -0.0170    0.0073    0.2539   -0.0111   -0.0083
          41   -0.0014   -0.0112    0.0064    0.0126    0.0063    0.0914   -0.0012   -0.0202
          42   -0.0040    0.0156   -0.0435    0.0605    0.0318    0.1761   -0.0024   -0.0486
          43    0.0169    0.0078   -0.0053   -0.0153    0.0175    0.0000    0.0085   -0.0150
          44   -0.0430   -0.0007   -0.0237    0.0217   -0.0608    0.0055   -0.0141    0.0379
          45   -0.0532   -0.0259    0.0216    0.0530   -0.0604   -0.0068   -0.0368    0.0697
          46    0.0233    0.0107   -0.0071   -0.0201    0.0256   -0.0032    0.0126   -0.0218
          47   -0.0151    0.0279   -0.0675   -0.0217   -0.0383    0.0102    0.0193   -0.0126
          48    0.0058    0.0350   -0.0721   -0.0372   -0.0186    0.0065    0.0307   -0.0331
          49    0.0245    0.0085   -0.0031   -0.0215    0.0321   -0.0054    0.0120   -0.0239
          50    0.0223   -0.0002    0.0153   -0.0091    0.0415   -0.0166    0.0080   -0.0211
          51    0.0824   -0.0242    0.0982   -0.0085    0.1415   -0.0539    0.0065   -0.0454
          52   -0.0171    0.0025   -0.0044    0.0002    0.0033   -0.0052    0.0006   -0.0020
          53   -0.0080    0.0020   -0.0041    0.0018    0.0009   -0.0080    0.0006   -0.0014
          54   -0.0152    0.0006   -0.0019    0.0010    0.0034   -0.0052    0.0004   -0.0006
          55    0.0189    0.2633    0.0386    0.0768   -0.0004    0.0269   -0.0732   -0.0353
          56    0.0048    0.0167    0.0123   -0.0110   -0.0090   -0.0117   -0.0028   -0.0115
          57    0.0220   -0.1213   -0.0639    0.0354    0.0214    0.0641    0.0276    0.0183
          58   -0.0229   -0.0166    0.0364    0.0051   -0.0255    0.0138    0.2075    0.0345
          59   -0.0848    0.0154    0.0515   -0.0810   -0.0469    0.0016    0.0216   -0.0223
          60   -0.0674    0.0241    0.0284   -0.0797   -0.0348    0.0008   -0.0896   -0.0433
          61    0.0432    0.1685    0.0203    0.0800    0.0111    0.0167    0.1735    0.0565
          62    0.0014    0.0126    0.0002    0.0073    0.0032   -0.0015    0.0117    0.0074
          63    0.0755   -0.0918   -0.0794    0.0707    0.0538    0.0045   -0.0902    0.0144


   Root No.      25        26        27        28        29        30        31        32

                25 A      26 A      27 A      28 A      29 A      30 A      31 A      32 A   

                1090.7    1111.9    1120.3    1133.1    1141.7    1158.9    1189.7    1206.4
  
           1   -0.0152   -0.0132    0.0073    0.0028   -0.0159   -0.0248    0.0144   -0.0455
           2    0.0072   -0.0201    0.0033    0.0025   -0.0367    0.0087    0.0208   -0.0078
           3    0.0275    0.0164    0.0301   -0.0296   -0.0038   -0.0289    0.0138   -0.0070
           4   -0.0128    0.0374   -0.0017   -0.0184    0.0173    0.0119    0.0083   -0.0152
           5    0.0032    0.0187    0.0081   -0.0103   -0.0052    0.0014    0.0235    0.0524
           6    0.0104    0.0083    0.0135   -0.0100   -0.0184   -0.0066   -0.0128    0.0099
           7    0.0062    0.0121    0.0149    0.0229    0.0007    0.0112   -0.0027    0.0164
           8   -0.0060    0.0117    0.0263    0.0014    0.0176   -0.0298   -0.0056    0.0055
           9   -0.0084   -0.0227    0.0400   -0.0034   -0.0058    0.0384    0.0104    0.0001
          10   -0.0362    0.0145    0.0004   -0.0104   -0.0170    0.0086   -0.0060    0.0095
          11    0.0160   -0.0197   -0.0024    0.0073    0.0089   -0.0027   -0.0013   -0.0249
          12    0.0085    0.0009   -0.0116    0.0066    0.0301    0.0082    0.0013   -0.0246
          13   -0.0033   -0.0144   -0.0181   -0.0274    0.0041   -0.0049    0.0002   -0.0018
          14   -0.0021   -0.0095   -0.0219   -0.0053   -0.0013    0.0111   -0.0018    0.0003
          15    0.0140    0.0198   -0.0461    0.0066   -0.0080   -0.0270   -0.0024    0.0004
          16    0.0569   -0.0012    0.0072    0.0004    0.0251    0.0019    0.0056   -0.0100
          17   -0.0178    0.0114   -0.0135    0.0020    0.0033    0.0048   -0.0089    0.0085
          18   -0.0505   -0.0105   -0.0070    0.0059   -0.0231   -0.0029   -0.0045    0.0086
          19    0.0056   -0.0085    0.0007    0.0035   -0.0080    0.0001   -0.0043    0.0101
          20    0.0025   -0.0051   -0.0005    0.0012   -0.0066    0.0016   -0.0213   -0.0221
          21   -0.0035    0.0058    0.0003   -0.0025    0.0065   -0.0017    0.0092    0.0019
          22   -0.0038    0.0025   -0.0014   -0.0003    0.0034    0.0009    0.0001   -0.0032
          23   -0.0011    0.0075    0.0032   -0.0047   -0.0016   -0.0004   -0.0049    0.0024
          24    0.0013   -0.0063   -0.0015    0.0030   -0.0027    0.0011   -0.0065   -0.0020
          25   -0.0865   -0.0899   -0.0485    0.1414    0.1418   -0.0548   -0.1153    0.0944
          26    0.1052    0.0564   -0.0711   -0.0051   -0.0135    0.2118    0.0271   -0.0413
          27    0.0638    0.0324   -0.0582    0.0395    0.0985    0.1149   -0.0541    0.0455
          28    0.2062   -0.0357    0.0518   -0.0324   -0.0937   -0.0121   -0.1642    0.1454
          29   -0.1021    0.0544   -0.0168   -0.0037    0.0388    0.0180    0.0910   -0.0189
          30   -0.1527    0.0769   -0.0175   -0.0022   -0.0607    0.0839   -0.1582   -0.0128
          31    0.0065   -0.0382   -0.0232    0.0228   -0.0733    0.0527    0.0315   -0.0192
          32   -0.0678   -0.0216    0.0817   -0.1134    0.1821   -0.0295   -0.0704    0.0364
          33   -0.0594   -0.0829    0.0643   -0.1031    0.0892    0.0685   -0.0256    0.0058
          34    0.0063   -0.0117   -0.0306   -0.0198   -0.0025    0.0110    0.0015    0.0299
          35   -0.0369    0.0288    0.1152    0.0876    0.0059   -0.0286    0.0110   -0.1017
          36    0.0001    0.0465    0.1608    0.1130    0.0083    0.0417   -0.0103   -0.0070
          37   -0.0704   -0.0488    0.0234   -0.0018   -0.0943   -0.0418    0.0215    0.0708
          38   -0.0084   -0.0047   -0.0104    0.0147    0.0231   -0.0024    0.0348    0.0065
          39   -0.0295   -0.0274   -0.0039    0.0176   -0.0061   -0.0209    0.0394    0.0286
          40   -0.0195   -0.0075   -0.0026   -0.0052   -0.0502   -0.0327   -0.0187    0.0474
          41    0.0233   -0.0304   -0.0046    0.0109   -0.0046   -0.0210   -0.0056   -0.0093
          42    0.0583   -0.0826   -0.0122    0.0354    0.0027   -0.0382   -0.0297   -0.0745
          43    0.0019    0.0053    0.0133    0.0120   -0.0031    0.0068    0.0020    0.0042
          44    0.0004    0.0015   -0.0592   -0.0403    0.0132   -0.0522   -0.0080   -0.0089
          45   -0.0022   -0.0392   -0.1301   -0.0973    0.0090   -0.0431   -0.0071   -0.0144
          46    0.0063    0.0183    0.0032    0.0272   -0.0077    0.0002    0.0003    0.0030
          47    0.0213    0.0666   -0.0234    0.0367    0.0058   -0.0710   -0.0117    0.0006
          48    0.0395    0.1008   -0.0345    0.0770   -0.0117   -0.0843   -0.0099    0.0031
          49    0.0018    0.0154    0.0047    0.0256   -0.0047    0.0002   -0.0013    0.0018
          50   -0.0006    0.0043   -0.0127    0.0177   -0.0032    0.0118   -0.0036    0.0012
          51    0.0015   -0.0186   -0.0615    0.0220   -0.0189    0.0685   -0.0059   -0.0021
          52   -0.0020   -0.0084   -0.0055    0.0084    0.0028    0.0006   -0.0027    0.0011
          53    0.0027   -0.0051   -0.0017    0.0040    0.0021    0.0008   -0.0005   -0.0003
          54    0.0066   -0.0061   -0.0052    0.0077    0.0085    0.0021   -0.0029    0.0004
          55   -0.0114    0.0026   -0.0157    0.0118    0.0453   -0.0005    0.1112    0.0529
          56    0.0016    0.0006    0.0017   -0.0032   -0.0089    0.0019   -0.0335   -0.0312
          57    0.0011   -0.0574   -0.0317    0.0537    0.0490   -0.0010    0.2039    0.1389
          58    0.0094   -0.0152   -0.0025    0.0059   -0.0073    0.0037   -0.0074    0.0001
          59   -0.0021   -0.0165   -0.0074    0.0098   -0.0093    0.0101   -0.0214    0.0017
          60   -0.0064   -0.0131   -0.0081    0.0097   -0.0016    0.0066   -0.0115   -0.0016
          61    0.0113   -0.0088    0.0033    0.0022   -0.0120   -0.0007   -0.0046    0.0242
          62    0.0004    0.0039    0.0026   -0.0033   -0.0040    0.0000   -0.0095   -0.0018
          63   -0.0119    0.0228    0.0037   -0.0084    0.0075    0.0026    0.0134    0.0374


   Root No.      33        34        35        36        37        38        39        40

                33 A      34 A      35 A      36 A      37 A      38 A      39 A      40 A   

                1210.8    1236.1    1254.0    1310.4    1366.0    1393.5    1400.4    1404.8
  
           1    0.0027   -0.0170    0.0280    0.0142   -0.0189    0.0027    0.0063    0.0016
           2    0.0012    0.0262   -0.0197    0.0005    0.0334   -0.0038   -0.0181   -0.0072
           3    0.0210    0.0112   -0.0096    0.0091    0.0179    0.0062   -0.0100   -0.0047
           4    0.0085   -0.0103   -0.0202   -0.0216   -0.0002   -0.0195    0.0156    0.0064
           5   -0.0090   -0.0114    0.0052    0.0061   -0.0014    0.0154   -0.0069   -0.0026
           6   -0.0221   -0.0007    0.0251   -0.0282   -0.0161   -0.0288    0.0317    0.0133
           7   -0.0043    0.0002   -0.0012    0.0015    0.0077   -0.0022   -0.0199   -0.0067
           8    0.0085    0.0197   -0.0199   -0.0123   -0.0238    0.0051    0.0338    0.0117
           9   -0.0010    0.0155   -0.0186   -0.0104   -0.0221   -0.0014   -0.0085    0.0018
          10   -0.0145    0.0476    0.0265    0.0109   -0.0018    0.0336    0.0007    0.0004
          11   -0.0077    0.0186    0.0045    0.0029    0.0029   -0.0175   -0.0028   -0.0011
          12    0.0036    0.0261    0.0054    0.0153    0.0052   -0.0212   -0.0110   -0.0046
          13    0.0018    0.0021   -0.0016   -0.0009   -0.0047   -0.0002    0.0046   -0.0235
          14   -0.0041   -0.0079    0.0068    0.0017   -0.0074   -0.0027   -0.0010   -0.0211
          15    0.0000   -0.0004    0.0016   -0.0010   -0.0228   -0.0037   -0.0116    0.0043
          16    0.0126    0.0001   -0.0158   -0.0009    0.0060   -0.0053   -0.0028   -0.0011
          17   -0.0052   -0.0096    0.0100    0.0006   -0.0062    0.0032    0.0028    0.0012
          18   -0.0112   -0.0020    0.0104   -0.0011   -0.0051    0.0027    0.0032    0.0013
          19   -0.0145    0.0010    0.0009   -0.0045    0.0036    0.0097   -0.0074   -0.0030
          20    0.0405    0.0064    0.0146   -0.0205   -0.0052   -0.0173    0.0130    0.0051
          21   -0.0248   -0.0036   -0.0073   -0.0161    0.0073    0.0143   -0.0111   -0.0049
          22    0.0012   -0.0006   -0.0033   -0.0021    0.0027    0.0047   -0.0047   -0.0021
          23   -0.0294   -0.0039   -0.0106   -0.0001    0.0049    0.0112   -0.0091   -0.0037
          24   -0.0024    0.0000   -0.0048   -0.0046    0.0065    0.0126   -0.0120   -0.0050
          25   -0.0400    0.0713   -0.0394   -0.0383    0.0207   -0.0261    0.0046   -0.0004
          26   -0.0289   -0.0820    0.0444   -0.0039   -0.0504   -0.0015    0.0155    0.0127
          27   -0.0265   -0.0252    0.0057   -0.0224   -0.0263   -0.0067    0.0149    0.0101
          28    0.0681   -0.0049    0.0637    0.0272   -0.0189    0.0363   -0.0188   -0.0041
          29   -0.0149   -0.0142   -0.0354   -0.0114    0.0096   -0.0047    0.0025   -0.0007
          30    0.2532   -0.0111   -0.0639    0.0205    0.0275    0.0236   -0.0473   -0.0217
          31   -0.0075    0.0269   -0.0231   -0.0102    0.0693    0.0202    0.1650    0.0397
          32    0.0057   -0.0743    0.0669    0.0296    0.0315   -0.0034   -0.0450   -0.0173
          33   -0.0050   -0.0497    0.0431    0.0185    0.0741    0.0082    0.0597    0.0117
          34   -0.0014    0.0292   -0.0310   -0.0129   -0.0225   -0.0031   -0.0268   -0.0053
          35   -0.0042   -0.0927    0.0983    0.0425   -0.0251   -0.0184   -0.1293   -0.0401
          36   -0.0079   -0.0425    0.0412    0.0193    0.1014    0.0157    0.1141    0.0236
          37   -0.0059   -0.1140   -0.0530   -0.0359    0.0199   -0.1331   -0.0119   -0.0047
          38    0.0385   -0.0605   -0.0286    0.0145   -0.0301    0.2311    0.0236    0.0096
          39    0.0405   -0.1202   -0.0615   -0.0035   -0.0077    0.0646    0.0025    0.0009
          40   -0.0063   -0.1306   -0.0442   -0.0406    0.0127   -0.1461   -0.0054   -0.0020
          41   -0.0034   -0.0606   -0.0248   -0.0188    0.0048   -0.0720   -0.0015   -0.0006
          42    0.0197   -0.1078   -0.0459   -0.0195   -0.0385    0.2017    0.0457    0.0185
          43   -0.0004    0.0080   -0.0094   -0.0069   -0.0414   -0.0056   -0.0110   -0.0307
          44    0.0062   -0.0098    0.0146    0.0070    0.0429    0.0081   -0.0576    0.2378
          45    0.0036   -0.0212    0.0263    0.0200    0.1034    0.0135    0.0531    0.0000
          46   -0.0015   -0.0027    0.0029    0.0063    0.0468    0.0054    0.0283    0.0475
          47    0.0043   -0.0127    0.0182    0.0153    0.0656    0.0086    0.0375   -0.1265
          48    0.0037   -0.0102    0.0163    0.0169    0.0818    0.0103    0.0456   -0.0530
          49   -0.0002   -0.0041    0.0053    0.0023    0.0380    0.0056   -0.0570    0.2795
          50   -0.0051   -0.0139    0.0134    0.0052    0.0211    0.0012   -0.0290    0.1172
          51   -0.0189   -0.0554    0.0544    0.0301    0.1183    0.0086   -0.0033   -0.0389
          52    0.0000   -0.0095   -0.0020    0.0000   -0.0019    0.0005   -0.0006   -0.0002
          53    0.0003   -0.0023   -0.0022   -0.0001    0.0000   -0.0004   -0.0007   -0.0003
          54    0.0011   -0.0070   -0.0035    0.0001   -0.0011   -0.0004   -0.0010   -0.0004
          55    0.0900    0.0026    0.0309   -0.0059   -0.0056   -0.0125    0.0090    0.0037
          56    0.0288    0.0047    0.0087   -0.0228   -0.0040   -0.0161    0.0120    0.0046
          57    0.1988    0.0230    0.0940   -0.0098   -0.0140   -0.0287    0.0171    0.0069
          58    0.0184    0.0004   -0.0070    0.0402   -0.0054   -0.0103    0.0069    0.0036
          59    0.0515   -0.0005   -0.0257    0.2126   -0.0416   -0.0664    0.0551    0.0250
          60    0.0394    0.0012   -0.0153    0.1232   -0.0206   -0.0309    0.0243    0.0111
          61   -0.0355   -0.0057   -0.0225    0.1157   -0.0160   -0.0190    0.0174    0.0105
          62   -0.0203   -0.0024   -0.0060   -0.0185    0.0081    0.0156   -0.0133   -0.0057
          63   -0.0791   -0.0173   -0.0640    0.2460   -0.0340   -0.0431    0.0386    0.0194


   Root No.      41        42        43        44        45        46        47        48

                41 A      42 A      43 A      44 A      45 A      46 A      47 A      48 A   

                1410.7    1421.9    1434.2    1859.5    2071.1    2939.6    2947.6    2956.8
  
           1    0.0001    0.0144    0.0297   -0.0018    0.0001    0.0067    0.0119   -0.0082
           2    0.0011   -0.0097   -0.0383    0.0005   -0.0132    0.0104    0.0167   -0.0115
           3    0.0013    0.0033   -0.0135    0.0012   -0.0267   -0.0138   -0.0214    0.0148
           4   -0.0025   -0.0191   -0.0248   -0.0172   -0.0288   -0.0165    0.0067   -0.0016
           5    0.0010    0.0092    0.0135    0.0104   -0.0079   -0.0401    0.0144   -0.0037
           6   -0.0042   -0.0320   -0.0329   -0.0368   -0.0310    0.0026   -0.0011    0.0003
           7    0.0027   -0.0104   -0.0141    0.0006    0.0022   -0.0061   -0.0183   -0.0334
           8   -0.0074    0.0026    0.0418   -0.0004   -0.0012   -0.0031   -0.0093   -0.0173
           9   -0.0019   -0.0284    0.0307   -0.0001    0.0018    0.0023    0.0058    0.0106
          10    0.0000   -0.0055   -0.0094   -0.0013   -0.0333   -0.0002   -0.0002    0.0001
          11    0.0003    0.0042    0.0056    0.0008    0.0007    0.0021   -0.0008    0.0003
          12    0.0015    0.0166    0.0209   -0.0006   -0.0007   -0.0016    0.0009   -0.0003
          13   -0.0242    0.0015   -0.0003    0.0000   -0.0008    0.0000    0.0013    0.0018
          14    0.0307    0.0129   -0.0188    0.0000    0.0012    0.0002    0.0006    0.0009
          15   -0.0017    0.0325   -0.0342    0.0000   -0.0003   -0.0002   -0.0003   -0.0005
          16    0.0001    0.0000   -0.0027   -0.0032    0.3239    0.0006   -0.0003    0.0000
          17    0.0001    0.0018    0.0040   -0.0016    0.1421    0.0000   -0.0003    0.0001
          18   -0.0004   -0.0019    0.0006   -0.0039    0.2932    0.0003   -0.0008    0.0004
          19    0.0011    0.0063    0.0067    0.0916    0.0043    0.0001    0.0003   -0.0002
          20   -0.0015   -0.0131   -0.0143    0.0680   -0.0004    0.0016   -0.0006    0.0002
          21    0.0015    0.0098    0.0096    0.2043    0.0084    0.0002    0.0000    0.0000
          22    0.0008    0.0043    0.0043   -0.0704   -0.0011    0.0000    0.0000    0.0000
          23    0.0012    0.0081    0.0083   -0.0887   -0.0019   -0.0003    0.0001    0.0000
          24    0.0016    0.0109    0.0113   -0.1644   -0.0025    0.0001    0.0000    0.0000
          25   -0.0024   -0.0305   -0.0497   -0.0080    0.0166   -0.0890   -0.1451    0.0967
          26    0.0008    0.0053    0.0469    0.0012    0.0068   -0.1310   -0.2042    0.1429
          27    0.0004   -0.0096    0.0091   -0.0031    0.0118    0.1668    0.2615   -0.1795
          28    0.0046    0.0207    0.0449    0.0180   -0.0080    0.2073   -0.0766    0.0202
          29   -0.0015   -0.0021   -0.0110    0.0017   -0.0264    0.4823   -0.1745    0.0414
          30    0.0060    0.0383    0.0346    0.0392    0.0069   -0.0321    0.0116   -0.0024
          31   -0.0364    0.1090   -0.0017   -0.0005    0.0010    0.0260    0.0737    0.1297
          32    0.0195    0.0076   -0.0555    0.0003   -0.0017    0.0357    0.0993    0.1838
          33   -0.0077    0.0664   -0.0473   -0.0002   -0.0006   -0.0427   -0.1178   -0.2121
          34    0.0014   -0.0352    0.0167    0.0008    0.0018    0.0429    0.1464    0.2704
          35    0.0325   -0.0533   -0.0285   -0.0009    0.0025    0.0046    0.0143    0.0233
          36   -0.0212    0.1072   -0.0526   -0.0001    0.0032    0.0138    0.0464    0.0864
          37    0.0008    0.0170    0.0228    0.0017    0.0145   -0.0096    0.0040   -0.0011
          38   -0.0026   -0.0410   -0.0536    0.0035    0.0118   -0.0117    0.0044   -0.0012
          39   -0.0004   -0.0047   -0.0046    0.0005    0.0234    0.0127   -0.0051    0.0015
          40    0.0005    0.0182    0.0261   -0.0023    0.0126    0.0071   -0.0049    0.0023
          41    0.0001    0.0090    0.0145    0.0016    0.0114   -0.0150    0.0105   -0.0048
          42   -0.0055   -0.0629   -0.0770   -0.0061    0.0199    0.0023   -0.0010    0.0003
          43   -0.0449    0.0352   -0.0368   -0.0001   -0.0001    0.0005   -0.0109   -0.0160
          44   -0.2017   -0.0177    0.0295    0.0002   -0.0017    0.0005   -0.0003   -0.0002
          45    0.1764   -0.0841    0.0867   -0.0001   -0.0015    0.0010   -0.0025   -0.0028
          46    0.2982   -0.0352    0.0360    0.0001    0.0008   -0.0019   -0.0057   -0.0080
          47   -0.1733   -0.0661    0.0600   -0.0001   -0.0008   -0.0017   -0.0064   -0.0107
          48    0.0764   -0.0678    0.0642    0.0001   -0.0004    0.0020    0.0067    0.0085
          49    0.0429   -0.0090    0.0150    0.0001    0.0000    0.0000    0.0003    0.0012
          50    0.0302    0.0000   -0.0039    0.0000    0.0020   -0.0002    0.0004   -0.0017
          51   -0.1876   -0.0912    0.0556    0.0001    0.0034    0.0001    0.0002    0.0003
          52    0.0002    0.0022    0.0047    0.0035   -0.2025    0.0000    0.0002   -0.0001
          53    0.0001    0.0008    0.0015    0.0016   -0.0897    0.0000    0.0002   -0.0001
          54    0.0002    0.0023    0.0044    0.0033   -0.1859    0.0000    0.0002   -0.0001
          55   -0.0014   -0.0061   -0.0054   -0.0338   -0.0026   -0.0011    0.0006   -0.0002
          56   -0.0014   -0.0126   -0.0140    0.1227   -0.0002   -0.0181    0.0068   -0.0018
          57   -0.0020   -0.0108   -0.0077   -0.0508   -0.0026   -0.0034    0.0013   -0.0004
          58   -0.0014   -0.0052   -0.0050   -0.0475   -0.0007    0.0002   -0.0001    0.0001
          59   -0.0083   -0.0436   -0.0415    0.1179    0.0011   -0.0002    0.0001    0.0000
          60   -0.0036   -0.0178   -0.0161   -0.0815   -0.0001    0.0009   -0.0003    0.0001
          61   -0.0039   -0.0132   -0.0106    0.0361    0.0009    0.0003   -0.0001    0.0000
          62    0.0019    0.0114    0.0115   -0.1428   -0.0029    0.0015   -0.0010    0.0002
          63   -0.0071   -0.0281   -0.0253    0.0534    0.0003    0.0012   -0.0005    0.0001


   Root No.      49        50        51        52        53        54        55        56

                49 A      50 A      51 A      52 A      53 A      54 A      55 A      56 A   

                3032.4    3036.1    3039.9    3069.7    3084.9    3103.7    3126.9    3146.5
  
           1   -0.0001   -0.0003    0.0000    0.0000    0.0000   -0.0009    0.0000    0.0000
           2    0.0008   -0.0005    0.0000    0.0000    0.0003    0.0003    0.0000    0.0000
           3   -0.0003    0.0005   -0.0001   -0.0002    0.0003    0.0009    0.0000    0.0000
           4   -0.0001   -0.0010   -0.0006    0.0002    0.0000    0.0004   -0.0001    0.0004
           5   -0.0006   -0.0027   -0.0015    0.0003    0.0000   -0.0002    0.0001    0.0004
           6    0.0000    0.0002   -0.0001    0.0000    0.0000   -0.0008   -0.0005    0.0005
           7   -0.0187   -0.0003   -0.0001   -0.0032    0.0005    0.0000    0.0001    0.0000
           8    0.0147    0.0002    0.0001   -0.0006   -0.0015    0.0000    0.0000    0.0000
           9   -0.0303   -0.0004   -0.0002   -0.0006    0.0024    0.0000   -0.0001    0.0000
          10    0.0000    0.0006    0.0006    0.0000    0.0000    0.0298   -0.0002    0.0000
          11    0.0006   -0.0462    0.0084    0.0001    0.0000   -0.0112    0.0001    0.0000
          12   -0.0003    0.0230   -0.0047    0.0000    0.0000   -0.0282    0.0001   -0.0001
          13    0.0029   -0.0001    0.0000   -0.0498    0.0074    0.0000    0.0024    0.0001
          14   -0.0034   -0.0001    0.0000   -0.0068   -0.0442   -0.0001   -0.0006    0.0000
          15    0.0009    0.0000    0.0000    0.0035    0.0221    0.0000   -0.0007   -0.0001
          16   -0.0001    0.0001    0.0001    0.0000    0.0000    0.0012    0.0000   -0.0001
          17    0.0002   -0.0002    0.0001    0.0000    0.0000    0.0000   -0.0001    0.0000
          18    0.0000    0.0002    0.0001    0.0000    0.0000    0.0000    0.0000   -0.0001
          19    0.0000    0.0000    0.0002    0.0000    0.0000    0.0000    0.0020    0.0020
          20    0.0004   -0.0076   -0.0582    0.0001    0.0000    0.0010    0.0019    0.0087
          21    0.0000   -0.0014   -0.0081    0.0001    0.0000    0.0002    0.0046    0.0057
          22    0.0000    0.0000   -0.0005    0.0000    0.0000    0.0000    0.0015   -0.0272
          23    0.0000    0.0005    0.0044   -0.0016    0.0004   -0.0003   -0.0694    0.0239
          24    0.0000    0.0000   -0.0004   -0.0002    0.0001    0.0000   -0.0077   -0.0549
          25   -0.0021    0.0024    0.0001   -0.0012   -0.0004    0.0014   -0.0002   -0.0001
          26   -0.0036    0.0032   -0.0006   -0.0008    0.0008    0.0022   -0.0002    0.0000
          27    0.0031   -0.0039    0.0005    0.0018    0.0007   -0.0025    0.0003    0.0001
          28    0.0017    0.0124    0.0058   -0.0015    0.0001   -0.0010   -0.0016   -0.0010
          29    0.0057    0.0309    0.0168   -0.0039    0.0003   -0.0038   -0.0024   -0.0033
          30   -0.0007    0.0012   -0.0047    0.0000    0.0001   -0.0005   -0.0017    0.0012
          31   -0.1994   -0.0023   -0.0015   -0.0004    0.0167    0.0000    0.0001    0.0000
          32   -0.2378   -0.0025   -0.0018    0.0015    0.0182    0.0001   -0.0001    0.0000
          33    0.2634    0.0029    0.0020   -0.0054   -0.0251   -0.0001    0.0000    0.0000
          34    0.4262    0.0054    0.0032    0.0360   -0.0210    0.0003   -0.0012   -0.0001
          35    0.0584    0.0007    0.0005    0.0056   -0.0044    0.0000   -0.0003   -0.0001
          36    0.1052    0.0014    0.0008    0.0136   -0.0049    0.0001   -0.0006   -0.0001
          37   -0.0020    0.1649   -0.0354   -0.0001    0.0003   -0.2059    0.0005    0.0000
          38   -0.0020    0.1694   -0.0373   -0.0001    0.0003   -0.2636    0.0006    0.0000
          39    0.0032   -0.2740    0.0594    0.0002   -0.0005    0.3692   -0.0009    0.0000
          40    0.0022   -0.1716    0.0293    0.0003    0.0002   -0.1537    0.0010   -0.0001
          41   -0.0048    0.3903   -0.0655   -0.0007   -0.0004    0.3996   -0.0027    0.0001
          42    0.0001   -0.0023    0.0019    0.0000    0.0000   -0.0274    0.0002   -0.0003
          43   -0.0264    0.0005    0.0004    0.4510   -0.1033    0.0001   -0.0129   -0.0003
          44   -0.0032    0.0000    0.0000    0.0377   -0.0317   -0.0001   -0.0014    0.0000
          45   -0.0072    0.0002    0.0002    0.1485   -0.0215    0.0001   -0.0048   -0.0002
          46    0.0066    0.0002    0.0002    0.1211    0.1894    0.0003   -0.0083   -0.0006
          47    0.0048    0.0003    0.0002    0.1587    0.1821    0.0003   -0.0106   -0.0007
          48   -0.0064   -0.0004   -0.0003   -0.1965   -0.2389   -0.0004    0.0124    0.0008
          49   -0.0162   -0.0002   -0.0002    0.0235   -0.1747   -0.0003   -0.0079   -0.0004
          50    0.0358    0.0002    0.0003   -0.1138    0.3772    0.0007    0.0201    0.0010
          51   -0.0045   -0.0001    0.0000    0.0066   -0.0054    0.0000   -0.0013   -0.0001
          52    0.0000   -0.0001    0.0000    0.0000    0.0000   -0.0003    0.0000    0.0000
          53    0.0000   -0.0001    0.0000    0.0000    0.0000   -0.0001   -0.0001    0.0000
          54    0.0000    0.0000   -0.0001    0.0000    0.0000   -0.0003    0.0001    0.0000
          55    0.0002   -0.0031   -0.0217    0.0001    0.0000    0.0004    0.0014    0.0006
          56   -0.0051    0.0861    0.6729   -0.0006   -0.0001   -0.0119    0.0040   -0.0674
          57   -0.0004    0.0053    0.0527    0.0000    0.0000   -0.0017    0.0038   -0.0084
          58   -0.0002    0.0032    0.0249   -0.0003    0.0001   -0.0005   -0.0235    0.3044
          59    0.0002   -0.0046   -0.0358   -0.0002    0.0000    0.0008    0.0115   -0.3918
          60   -0.0003    0.0062    0.0481   -0.0006    0.0002   -0.0011   -0.0490    0.5961
[...]
 EFF. MASS   5.6973

 VIBRATION   36   36A       ATOM PAIR        ENERGY CONTRIBUTION    RADIAL
 FREQ.      1310.36        C  8 --  H 21          +23.3% ( 54.2%)     0.0%
 T-DIPOLE    0.0239        C  8 --  H 20          +18.7% ( 48.5%)     0.6%
 TRAVEL      0.1326        C  2 --  C  7           +9.1% ( 33.9%)    75.6%
 RED. MASS   0.3995        C  2 --  C  4           +7.4% ( 30.6%)    44.8%
 EFF. MASS   2.9251

 VIBRATION   37   37A       ATOM PAIR        ENERGY CONTRIBUTION    RADIAL
 FREQ.      1366.04        C  1 --  C  3          +14.2% ( 49.4%)    71.3%
 T-DIPOLE    0.2494        C  1 --  H  9           +9.2% ( 39.7%)     0.0%
 TRAVEL      0.1022        C  5 --  H 17           +8.4% ( 37.9%)     0.7%
 RED. MASS   0.5825        C  3 --  H 12           +8.1% ( 37.4%)     0.3%
 EFF. MASS   4.7234

 VIBRATION   38   38A       ATOM PAIR        ENERGY CONTRIBUTION    RADIAL
 FREQ.      1393.52        C  4 --  H 13          +24.0% ( 57.7%)     2.9%
 T-DIPOLE    0.2413        C  4 --  H 14          +21.5% ( 54.6%)     5.1%
 TRAVEL      0.1166        C  2 --  C  4           +9.3% ( 36.0%)     2.2%
 RED. MASS   0.4773        C  2 --  C  7           +8.6% ( 34.5%)    98.9%
 EFF. MASS   3.5622

 VIBRATION   39   39A       ATOM PAIR        ENERGY CONTRIBUTION    RADIAL
 FREQ.      1400.38        C  3 --  H 11          +16.2% ( 50.9%)     3.4%
 T-DIPOLE    0.2185        C  3 --  H 12          +15.1% ( 49.1%)     4.0%
 TRAVEL      0.1009        C  1 --  C  3           +8.9% ( 37.6%)    99.9%
 RED. MASS   0.5111        C  2 --  C  7           +8.4% ( 36.7%)    98.1%
 EFF. MASS   4.7314

 VIBRATION   40   40A       ATOM PAIR        ENERGY CONTRIBUTION    RADIAL
 FREQ.      1404.77        C  5 --  H 17          +41.7% ( 59.3%)     0.5%
 T-DIPOLE    0.0844        C  5 --  H 15          +26.4% ( 47.2%)     5.1%
 TRAVEL      0.1581        C  5 --  H 16          +10.2% ( 29.3%)    27.4%
 RED. MASS   0.3692        C  3 --  C  5           +5.2% ( 21.0%)    11.8%
 EFF. MASS   1.9200

 VIBRATION   41   41A       ATOM PAIR        ENERGY CONTRIBUTION    RADIAL
 FREQ.      1410.66        C  5 --  H 16          +47.2% ( 60.5%)     0.1%
 T-DIPOLE    0.0717        C  5 --  H 15          +28.9% ( 47.3%)     3.3%
 TRAVEL      0.1690        C  5 --  H 17          +15.0% ( 34.2%)    25.3%
 RED. MASS   0.3954        C  3 --  C  5           +6.0% ( 21.7%)    10.8%
 EFF. MASS   1.6735

 VIBRATION   42   42A       ATOM PAIR        ENERGY CONTRIBUTION    RADIAL
 FREQ.      1421.94        C  3 --  C  5           +9.1% ( 40.4%)    90.7%
 T-DIPOLE    0.1021        C  2 --  C  7           +8.4% ( 38.9%)    98.7%
 TRAVEL      0.0916        C  3 --  H 11           +8.0% ( 37.9%)     5.3%
 RED. MASS   0.5447        C  3 --  H 12           +7.6% ( 37.0%)     6.3%
 EFF. MASS   5.6576

 VIBRATION   43   43A       ATOM PAIR        ENERGY CONTRIBUTION    RADIAL
 FREQ.      1434.24        C  1 --  C  3          +12.6% ( 55.5%)    80.8%
 T-DIPOLE    0.1332        C  3 --  C  5           +9.9% ( 49.4%)    87.2%
 TRAVEL      0.0748        C  1 --  C  2           +9.0% ( 46.9%)    49.2%
 RED. MASS   1.2249        C  3 --  H 11           +6.3% ( 39.4%)     0.1%
 EFF. MASS   8.4127

 VIBRATION   44   44A       ATOM PAIR        ENERGY CONTRIBUTION    RADIAL
 FREQ.      1859.46        C  7 --  C  8          +44.9% ( 99.1%)    98.8%
 T-DIPOLE    0.0739        C  2 --  C  7          +16.8% ( 60.7%)    54.3%
 TRAVEL      0.0554        C  7 --  H 19          +15.4% ( 58.0%)     3.8%
 RED. MASS   5.2840        C  8 --  H 21          +10.8% ( 48.7%)     9.4%
 EFF. MASS  11.8023        C  8 --  H 20          +10.6% ( 48.2%)    13.0%

 VIBRATION   45   45A       ATOM PAIR        ENERGY CONTRIBUTION    RADIAL
 FREQ.      2071.12        C  6 --  O 18          +42.2% ( 98.9%)   100.0%
 T-DIPOLE    4.9286        C  2 --  C  6          +19.1% ( 66.6%)    99.9%
 TRAVEL      0.0495        C  4 --  C  6          +19.0% ( 66.4%)    53.4%
 RED. MASS   6.8757        C  1 --  C  6          +19.0% ( 66.3%)    51.8%
 EFF. MASS  13.3039

 VIBRATION   46   46A       ATOM PAIR        ENERGY CONTRIBUTION    RADIAL
 FREQ.      2939.60        C  2 --  H 10          +78.5% ( 90.7%)   100.0%
 T-DIPOLE    0.1034        C  1 --  H  9          +15.0% ( 39.7%)   100.0%
 TRAVEL      0.1255        C  3 --  H 11           +1.1% ( 10.9%)    97.6%
 RED. MASS   0.6520        C  1 --  C  2           +1.1% ( 10.8%)    15.9%
 EFF. MASS   1.4558

 VIBRATION   47   47A       ATOM PAIR        ENERGY CONTRIBUTION    RADIAL
 FREQ.      2947.63        C  1 --  H  9          +56.1% ( 76.8%)   100.0%
 T-DIPOLE    0.2014        C  2 --  H 10          +15.6% ( 40.5%)   100.0%
 TRAVEL      0.1250        C  3 --  H 11          +13.4% ( 37.5%)    96.8%
 RED. MASS   0.3799        C  3 --  H 12          +11.1% ( 34.2%)    95.8%
 EFF. MASS   1.4651

 VIBRATION   48   48A       ATOM PAIR        ENERGY CONTRIBUTION    RADIAL
 FREQ.      2956.80        C  3 --  H 11          +39.1% ( 64.5%)    97.0%
 T-DIPOLE    0.1488        C  3 --  H 12          +33.6% ( 59.8%)    96.1%
 TRAVEL      0.1229        C  1 --  H  9          +23.6% ( 50.1%)   100.0%
 RED. MASS   0.3422        C  1 --  C  3           +1.0% ( 10.4%)     4.6%
 EFF. MASS   1.5110

 VIBRATION   49   49A       ATOM PAIR        ENERGY CONTRIBUTION    RADIAL
 FREQ.      3032.38        C  3 --  H 12          +53.3% ( 72.0%)    98.2%
 T-DIPOLE    0.0764        C  3 --  H 11          +44.6% ( 65.8%)    97.1%
 TRAVEL      0.1320        C  3 --  C  5           +0.6% (  7.9%)    25.9%
 RED. MASS   0.4802        C  1 --  C  3           +0.6% (  7.7%)    29.5%
 EFF. MASS   1.2766

 VIBRATION   50   50A       ATOM PAIR        ENERGY CONTRIBUTION    RADIAL
 FREQ.      3036.15        C  4 --  H 14          +54.2% ( 76.6%)    97.7%
 T-DIPOLE    0.2463        C  4 --  H 13          +40.1% ( 65.9%)    95.9%
 TRAVEL      0.1204        C  7 --  H 19           +2.1% ( 15.2%)   100.0%
 RED. MASS   0.5008        C  1 --  C  4           +1.0% ( 10.6%)     0.2%
 EFF. MASS   1.5328

 VIBRATION   51   51A       ATOM PAIR        ENERGY CONTRIBUTION    RADIAL
 FREQ.      3039.89        C  7 --  H 19          +93.8% ( 98.3%)   100.0%
 T-DIPOLE    0.2434        C  7 --  C  8           +1.4% ( 12.0%)    30.6%
 TRAVEL      0.1214        C  4 --  H 13           +1.3% ( 11.7%)    97.4%
 RED. MASS   0.8690        C  2 --  C  7           +1.3% ( 11.7%)    15.6%
 EFF. MASS   1.5040

 VIBRATION   52   52A       ATOM PAIR        ENERGY CONTRIBUTION    RADIAL
 FREQ.      3069.72        C  5 --  H 15          +68.6% ( 85.4%)    98.9%
 T-DIPOLE    0.0317        C  5 --  H 16          +24.9% ( 51.4%)    91.1%
 TRAVEL      0.1210        C  5 --  H 17           +5.0% ( 23.0%)    56.1%
 RED. MASS   0.5617        C  3 --  C  5           +1.0% ( 10.2%)     0.0%
 EFF. MASS   1.4991

 VIBRATION   53   53A       ATOM PAIR        ENERGY CONTRIBUTION    RADIAL
 FREQ.      3084.88        C  5 --  H 17          +54.6% ( 76.2%)    98.1%
 T-DIPOLE    0.0229        C  5 --  H 16          +39.5% ( 64.8%)    95.1%
 TRAVEL      0.1205        C  5 --  H 15           +4.4% ( 21.7%)    49.1%
 RED. MASS   0.4849        C  3 --  C  5           +1.0% ( 10.3%)     0.0%
 EFF. MASS   1.5043

 VIBRATION   54   54A       ATOM PAIR        ENERGY CONTRIBUTION    RADIAL
 FREQ.      3103.70        C  4 --  H 13          +56.6% ( 74.6%)    98.0%
 T-DIPOLE    0.2572        C  4 --  H 14          +41.3% ( 63.7%)    95.9%
 TRAVEL      0.1301        C  1 --  C  4           +0.7% (  8.3%)    99.1%
 RED. MASS   0.4938        C  2 --  C  4           +0.7% (  8.2%)    49.5%
 EFF. MASS   1.2838

 VIBRATION   55   55A       ATOM PAIR        ENERGY CONTRIBUTION    RADIAL
 FREQ.      3126.90        C  8 --  H 21          +96.5% ( 99.6%)   100.0%
 T-DIPOLE    0.2101        C  8 --  H 20           +2.0% ( 14.2%)    36.5%
 TRAVEL      0.1195        C  7 --  C  8           +1.4% ( 11.9%)    35.4%
 RED. MASS   0.9183
 EFF. MASS   1.5088

 VIBRATION   56   56A       ATOM PAIR        ENERGY CONTRIBUTION    RADIAL
 FREQ.      3146.50        C  8 --  H 20          +96.0% ( 99.0%)    99.9%
 T-DIPOLE    0.2624        C  8 --  H 21           +1.6% ( 12.8%)     0.0%
 TRAVEL      0.1197        C  7 --  C  8           +1.5% ( 12.6%)    58.2%
 RED. MASS   0.8991        C  7 --  H 19           +0.8% (  8.9%)    95.3%
 EFF. MASS   1.4965

 VIBRATION   57   57A       ATOM PAIR        ENERGY CONTRIBUTION    RADIAL
 FREQ.      3176.49        C  5 --  H 17          +40.0% ( 60.9%)    97.9%
 T-DIPOLE    0.0180        C  5 --  H 16          +34.9% ( 56.9%)    97.3%
 TRAVEL      0.1365        C  5 --  H 15          +24.8% ( 47.9%)    95.2%
 RED. MASS   0.3365        C  3 --  C  5           +0.3% (  5.2%)    96.9%
 EFF. MASS   1.1396

 SYMMETRY NUMBER FOR POINT-GROUP C1  =  1


          SYSTEM IS A GROUND STATE


    NULL



          MOLECULE IS NOT LINEAR

          THERE ARE 57 GENUINE VIBRATIONS IN THIS SYSTEM
          THIS THERMODYNAMICS CALCULATION IS LIMITED TO
          MOLECULES WHICH HAVE NO INTERNAL ROTATIONS




                    CALCULATED THERMODYNAMIC PROPERTIES
                                          *
   TEMP. (K)   PARTITION FUNCTION   H.O.F.    ENTHALPY  HEAT CAPACITY ENTROPY
                                   KCAL/MOL   CAL/MOLE    CAL/K/MOL  CAL/K/MOL


 298.00  VIB.     0.5745D+03                  4245.2913    29.3196    26.8715
         ROT.     0.5583D+06                   888.2813     2.9808    29.2770
         INT.     0.3207D+09                  5133.5726    32.3004    56.1485
         TRA.     0.1338D+28                  1480.4688     4.9680    40.3614
         TOT.                      -25.130    6614.0415    37.2684    96.5099

 200.00  VIB.     0.5504D+02                  1902.7786    18.8029    17.4787
         ROT.     0.3070D+06                   596.1620     2.9808    28.0883
         INT.     0.1690D+08                  2498.9405    21.7837    45.5670
         TRA.     0.7356D+27                   993.6033     4.9680    38.3802
         TOT.                      -28.251    3492.5438    26.7517    83.9472

 210.00  VIB.     0.6991D+02                  2095.6578    19.7773    18.4195
         ROT.     0.3303D+06                   625.9700     2.9808    28.2337
         INT.     0.2309D+08                  2721.6278    22.7581    46.6533
         TRA.     0.7914D+27                  1043.2834     4.9680    38.6226
         TOT.                      -27.979    3764.9112    27.7262    85.2759

 220.00  VIB.     0.8879D+02                  2298.4131    20.7781    19.3626
         ROT.     0.3542D+06                   655.7781     2.9808    28.3724
         INT.     0.3145D+08                  2954.1913    23.7589    47.7350
         TRA.     0.8486D+27                  1092.9636     4.9680    38.8537
         TOT.                      -27.697    4047.1548    28.7270    86.5887

 230.00  VIB.     0.1128D+03                  2511.3070    21.8049    20.3088
         ROT.     0.3786D+06                   685.5862     2.9808    28.5049
         INT.     0.4269D+08                  3196.8933    24.7857    48.8136
         TRA.     0.9072D+27                  1142.6437     4.9680    39.0746
         TOT.                      -27.404    4339.5370    29.7537    87.8882

 240.00  VIB.     0.1432D+03                  2734.5935    22.8564    21.2589
         ROT.     0.4035D+06                   715.3943     2.9808    28.6317
         INT.     0.5778D+08                  3449.9879    25.8372    49.8906
         TRA.     0.9670D+27                  1192.3239     4.9680    39.2860
         TOT.                      -27.101    4642.3118    30.8052    89.1766

 250.00  VIB.     0.1818D+03                  2968.5108    23.9307    22.2136
         ROT.     0.4290D+06                   745.2024     2.9808    28.7534
         INT.     0.7801D+08                  3713.7132    26.9115    50.9671
         TRA.     0.1028D+28                  1242.0041     4.9680    39.4888
         TOT.                      -26.788    4955.7173    31.8795    90.4559

 260.00  VIB.     0.2309D+03                  3213.2751    25.0254    23.1735
         ROT.     0.4550D+06                   775.0105     2.9808    28.8703
         INT.     0.1051D+09                  3988.2856    28.0062    52.0438
         TRA.     0.1090D+28                  1291.6842     4.9680    39.6837
         TOT.                      -26.464    5279.9698    32.9742    91.7275

 270.00  VIB.     0.2934D+03                  3469.0766    26.1376    24.1388
         ROT.     0.4815D+06                   804.8186     2.9808    28.9828
         INT.     0.1413D+09                  4273.8952    29.1184    53.1216
         TRA.     0.1154D+28                  1341.3644     4.9680    39.8712
         TOT.                      -26.129    5615.2596    34.0865    92.9927

 280.00  VIB.     0.3728D+03                  3736.0764    27.2645    25.1097
         ROT.     0.5085D+06                   834.6267     2.9808    29.0912
         INT.     0.1896D+09                  4570.7031    30.2453    54.2009
         TRA.     0.1219D+28                  1391.0445     4.9680    40.0518
         TOT.                      -25.782    5961.7477    35.2133    94.2527

 290.00  VIB.     0.4740D+03                  4014.4047    28.4028    26.0862
         ROT.     0.5360D+06                   864.4348     2.9808    29.1958
         INT.     0.2540D+09                  4878.8395    31.3836    55.2821
         TRA.     0.1284D+28                  1440.7247     4.9680    40.2262
         TOT.                      -25.424    6319.5642    36.3516    95.5082

 300.00  VIB.     0.6028D+03                  4304.1603    29.5494    27.0684
         ROT.     0.5640D+06                   894.2429     2.9808    29.2969
         INT.     0.3400D+09                  5198.4032    32.5302    56.3653
         TRA.     0.1351D+28                  1490.4049     4.9680    40.3946
         TOT.                      -25.055    6688.8081    37.4983    96.7599

 310.00  VIB.     0.7670D+03                  4605.4109    30.7013    28.0561
         ROT.     0.5924D+06                   924.0510     2.9808    29.3946
         INT.     0.4544D+09                  5529.4619    33.6821    57.4508
         TRA.     0.1419D+28                  1540.0850     4.9680    40.5575
         TOT.                      -24.674    7069.5469    38.6501    98.0082

 320.00  VIB.     0.9764D+03                  4918.1938    31.8554    29.0491
         ROT.     0.6213D+06                   953.8591     2.9808    29.4893
         INT.     0.6066D+09                  5872.0529    34.8362    58.5383
         TRA.     0.1489D+28                  1589.7652     4.9680    40.7152
         TOT.                      -24.282    7461.8181    39.8043    99.2536

 330.00  VIB.     0.1244D+04                  5242.5178    33.0091    30.0470
         ROT.     0.6506D+06                   983.6672     2.9808    29.5810
         INT.     0.8092D+09                  6226.1850    35.9899    59.6280
         TRA.     0.1559D+28                  1639.4454     4.9680    40.8681
         TOT.                      -23.878    7865.6304    40.9579   100.4961

 340.00  VIB.     0.1585D+04                  5578.3648    34.1596    31.0495
         ROT.     0.6804D+06                  1013.4753     2.9808    29.6700
         INT.     0.1079D+10                  6591.8402    37.1404    60.7195
         TRA.     0.1630D+28                  1689.1255     4.9680    41.0164
         TOT.                      -23.463    8280.9657    42.1084   101.7359

 350.00  VIB.     0.2021D+04                  5925.6920    35.3047    32.0562
         ROT.     0.7107D+06                  1043.2834     2.9808    29.7564
         INT.     0.1437D+10                  6968.9755    38.2855    61.8126
         TRA.     0.1703D+28                  1738.8057     4.9680    41.1604
         TOT.                      -23.036    8707.7811    43.2536   102.9730

 360.00  VIB.     0.2579D+04                  6284.4342    36.4423    33.0668
         ROT.     0.7414D+06                  1073.0915     2.9808    29.8404
         INT.     0.1912D+10                  7357.5257    39.4231    62.9071
         TRA.     0.1776D+28                  1788.4859     4.9680    41.3004
         TOT.                      -22.598    9146.0115    44.3911   104.2075

 370.00  VIB.     0.3293D+04                  6654.5059    37.5703    34.0807
         ROT.     0.7725D+06                  1102.8996     2.9808    29.9220
         INT.     0.2544D+10                  7757.4055    40.5512    64.0027
         TRA.     0.1851D+28                  1838.1660     4.9680    41.4365
         TOT.                      -22.148    9595.5715    45.5192   105.4392

 380.00  VIB.     0.4207D+04                  7035.8041    38.6873    35.0974
         ROT.     0.8040D+06                  1132.7077     2.9808    30.0015
         INT.     0.3382D+10                  8168.5118    41.6681    65.0990
         TRA.     0.1926D+28                  1887.8462     4.9680    41.5690
         TOT.                      -21.687   10056.3580    46.6361   106.6679

 390.00  VIB.     0.5377D+04                  7428.2102    39.7917    36.1167
         ROT.     0.8359D+06                  1162.5158     2.9808    30.0790
         INT.     0.4495D+10                  8590.7260    42.7725    66.1956
         TRA.     0.2003D+28                  1937.5263     4.9680    41.6980
         TOT.                      -21.216   10528.2523    47.7405   107.8937

 400.00  VIB.     0.6877D+04                  7831.5924    40.8823    37.1379
         ROT.     0.8683D+06                  1192.3239     2.9808    30.1544
         INT.     0.5971D+10                  9023.9163    43.8632    67.2923
         TRA.     0.2081D+28                  1987.2065     4.9680    41.8238
         TOT.                      -20.733   11011.1228    48.8312   109.1161

   *: NOTE: HEATS OF FORMATION ARE RELATIVE TO THE
            ELEMENTS IN THEIR STANDARD STATE AT 298K
              (=  Standard Enthalpy of Formation).

            Hvib:  Zero-point energy is not included.
                   frequencies of less than zero cm-1 are not included.
            Hrot = (3/2)RT
            Htra = (3/2)RT + pV = (5/2)RT

            Heat capacity is Cp, not Cv

           For more information, see: HTTP://OpenMOPAC.net/Manual/thermochemistry.html


           FORCE CONSTANT IN CARTESIAN COORDINATES (Millidynes/A)

    ATOM   CHEMICAL       X               Y               Z
   NUMBER   SYMBOL  FORCE CONSTANT  FORCE CONSTANT  FORCE CONSTANT

      1       C        7.515903        8.291637        8.061803
      2       C        7.319778        8.810929        8.698229
      3       C        8.339969        8.301089        8.420252
      4       C        8.001280        8.068892        7.879211
      5       C        8.211347        8.426985        8.223718
      6       C       13.114713        5.018364       11.088157
      7       C        4.570363       10.473931       12.234519
      8       C        4.062795       10.198838       12.199227
      9       H        1.346696        2.026154        2.807016
     10       H        1.346635        4.124587        0.767639
     11       H        1.574031        2.193018        2.620047
     12       H        4.613858        0.750099        1.014710
     13       H        1.481873        1.842597        3.227628
     14       H        1.299884        4.521681        0.716929
     15       H        4.888265        0.712930        1.122430
     16       H        1.834640        2.102698        2.841199
     17       H        1.447625        4.615023        0.727055
     18       O        8.598691        1.978195        7.269804
     19       H        0.424349        5.048726        0.734460
     20       H        1.136864        1.886455        3.449010
     21       H        0.412453        5.315189        0.709274



 TOTAL CPU TIME:             2.75 SECONDS

 == MOPAC DONE ==
