 *******************************************************************************
 ** Site#: 14399           For non-commercial use only        Version 13.159M **
 *******************************************************************************
 ** Cite this work as: MOPAC2012, James J. P. Stewart, Stewart Computational  **
 ** Chemistry, Version 13.159M web: HTTP://OpenMOPAC.net  Days remaining:   6 **
 *******************************************************************************
 **                                                                           **
 **                                MOPAC2012                                  **
 **                                                                           **
 *******************************************************************************

                            PM3 CALCULATION RESULTS


 *******************************************************************************
 *  CALCULATION DONE:                                Mon Jun  2 11:03:23 2014  *
 *  PM3      - The PM3 Hamiltonian to be used
 *  PRECISE  - CRITERIA TO BE INCREASED BY 100 TIMES
 *  NOSYM    - POINT-GROUP SYMMETRY SET TO C1
 *  T=       - A TIME OF 172800.0 SECONDS REQUESTED
 *  DUMP=N   - RESTART FILE WRITTEN EVERY  7200.000 SECONDS
 *******************************************************************************
pm3  precise nosym
 InChI=1S/C12H20/c1-3-5-7-11-9-12(10-11)8-6-4-2/h5-8,11-12H,3-4,9-10H2,1-2H3

   ATOM   CHEMICAL          X               Y               Z
  NUMBER   SYMBOL      (ANGSTROMS)     (ANGSTROMS)     (ANGSTROMS)
 
     1       C          0.77720000  *   1.13180000  *  -1.13820000  *
     2       C         -1.20360000  *   0.30590000  *  -1.00260000  *
     3       C         -0.51530000  *   1.49160000  *  -0.41040000  *
     4       C          0.12150000  *  -0.22590000  *  -1.54260000  *
     5       C          4.39800000  *   0.38860000  *   0.05630000  *
     6       C         -3.72070000  *  -1.09440000  *   1.59360000  *
     7       C          4.84210000  *  -1.06620000  *   0.13590000  *
     8       C         -4.96270000  *  -0.44710000  *   2.19440000  *
     9       C          2.00380000  *   1.00460000  *  -0.27480000  *
    10       C         -1.90480000  *  -0.59010000  *  -0.01460000  *
    11       C          3.15280000  *   0.52890000  *  -0.77220000  *
    12       C         -3.01930000  *  -0.19570000  *   0.61450000  *
    13       H          0.95000000  *   1.79310000  *  -2.02110000  *
    14       H         -1.88440000  *   0.59350000  *  -1.84020000  *
    15       H         -0.94810000  *   2.46060000  *  -0.75230000  *
    16       H         -0.43620000  *   1.45890000  *   0.70320000  *
    17       H          0.11600000  *  -0.38990000  *  -2.64520000  *
    18       H          0.53670000  *  -1.10010000  *  -0.98590000  *
    19       H          4.26400000  *   0.77720000  *   1.09310000  *
    20       H          5.20430000  *   0.99390000  *  -0.41710000  *
    21       H         -3.02020000  *  -1.35810000  *   2.41970000  *
    22       H         -4.02150000  *  -2.03690000  *   1.08000000  *
    23       H          4.05930000  *  -1.69130000  *   0.62360000  *
    24       H          5.77410000  *  -1.14380000  *   0.74050000  *
    25       H          5.05500000  *  -1.47570000  *  -0.87830000  *
    26       H         -5.70370000  *  -0.19950000  *   1.40010000  *
    27       H         -5.44550000  *  -1.14940000  *   2.91130000  *
    28       H         -4.69640000  *   0.48290000  *   2.74700000  *
    29       H          3.20170000  *   0.22440000  *  -1.81790000  *
    30       H          1.95430000  *   1.31620000  *   0.76820000  *
    31       H         -3.42220000  *   0.79770000  *   0.41290000  *
    32       H         -1.50610000  *  -1.58590000  *   0.17970000  *
 


          CARTESIAN COORDINATES 

    NO.       ATOM         X         Y         Z

     1         C        0.7772    1.1318   -1.1382
     2         C       -1.2036    0.3059   -1.0026
     3         C       -0.5153    1.4916   -0.4104
     4         C        0.1215   -0.2259   -1.5426
     5         C        4.3980    0.3886    0.0563
     6         C       -3.7207   -1.0944    1.5936
     7         C        4.8421   -1.0662    0.1359
     8         C       -4.9627   -0.4471    2.1944
     9         C        2.0038    1.0046   -0.2748
    10         C       -1.9048   -0.5901   -0.0146
    11         C        3.1528    0.5289   -0.7722
    12         C       -3.0193   -0.1957    0.6145
    13         H        0.9500    1.7931   -2.0211
    14         H       -1.8844    0.5935   -1.8402
    15         H       -0.9481    2.4606   -0.7523
    16         H       -0.4362    1.4589    0.7032
    17         H        0.1160   -0.3899   -2.6452
    18         H        0.5367   -1.1001   -0.9859
    19         H        4.2640    0.7772    1.0931
    20         H        5.2043    0.9939   -0.4171
    21         H       -3.0202   -1.3581    2.4197
    22         H       -4.0215   -2.0369    1.0800
    23         H        4.0593   -1.6913    0.6236
    24         H        5.7741   -1.1438    0.7405
    25         H        5.0550   -1.4757   -0.8783
    26         H       -5.7037   -0.1995    1.4001
    27         H       -5.4455   -1.1494    2.9113
    28         H       -4.6964    0.4829    2.7470
    29         H        3.2017    0.2244   -1.8179
    30         H        1.9543    1.3162    0.7682
    31         H       -3.4222    0.7977    0.4129
    32         H       -1.5061   -1.5859    0.1797

  H: (PM3): J. J. P. STEWART, J. COMP. CHEM. 10, 209 (1989).
  C: (PM3): J. J. P. STEWART, J. COMP. CHEM. 10, 209 (1989).

           Empirical Formula: C12 H20  =    32 atoms



      MOLECULAR POINT GROUP   :   C1  


      RHF CALCULATION, NO. OF DOUBLY OCCUPIED LEVELS =   34

      Geometry optimization using EF

          DIAGONAL MATRIX USED AS START HESSIAN

 CYCLE:     1 TIME:   0.022 TIME LEFT:  2.00D  GRAD.:   110.867 HEAT: 10.57158
 CYCLE:     2 TIME:   0.026 TIME LEFT:  2.00D  GRAD.:   101.401 HEAT: 8.837285
 CYCLE:     3 TIME:   0.014 TIME LEFT:  2.00D  GRAD.:   110.211 HEAT: 8.437466
 CYCLE:     4 TIME:   0.025 TIME LEFT:  2.00D  GRAD.:    47.322 HEAT: 6.169386
 CYCLE:     5 TIME:   0.032 TIME LEFT:  2.00D  GRAD.:    27.304 HEAT: 5.600075
 CYCLE:     6 TIME:   0.019 TIME LEFT:  2.00D  GRAD.:    31.599 HEAT: 5.466415
 CYCLE:     7 TIME:   0.016 TIME LEFT:  2.00D  GRAD.:    26.915 HEAT: 5.196904
 CYCLE:     8 TIME:   0.031 TIME LEFT:  2.00D  GRAD.:    22.029 HEAT: 5.056047
 CYCLE:     9 TIME:   0.016 TIME LEFT:  2.00D  GRAD.:    22.722 HEAT: 4.983064
 CYCLE:    10 TIME:   0.027 TIME LEFT:  2.00D  GRAD.:    11.671 HEAT: 4.870524
 CYCLE:    11 TIME:   0.031 TIME LEFT:  2.00D  GRAD.:     8.719 HEAT: 4.834243
 CYCLE:    12 TIME:   0.016 TIME LEFT:  2.00D  GRAD.:    13.118 HEAT: 4.823132
 CYCLE:    13 TIME:   0.021 TIME LEFT:  2.00D  GRAD.:     9.456 HEAT: 4.786257
 CYCLE:    14 TIME:   0.026 TIME LEFT:  2.00D  GRAD.:     9.451 HEAT: 4.771574
 CYCLE:    15 TIME:   0.015 TIME LEFT:  2.00D  GRAD.:     6.107 HEAT: 4.749286
 CYCLE:    16 TIME:   0.018 TIME LEFT:  2.00D  GRAD.:     9.974 HEAT: 4.748455
 CYCLE:    17 TIME:   0.014 TIME LEFT:  2.00D  GRAD.:     9.439 HEAT: 4.734824
 CYCLE:    18 TIME:   0.029 TIME LEFT:  2.00D  GRAD.:     4.429 HEAT: 4.711979
 CYCLE:    19 TIME:   0.025 TIME LEFT:  2.00D  GRAD.:     3.735 HEAT: 4.705949
 CYCLE:    20 TIME:   0.014 TIME LEFT:  2.00D  GRAD.:     3.877 HEAT: 4.699079
 CYCLE:    21 TIME:   0.018 TIME LEFT:  2.00D  GRAD.:     4.255 HEAT: 4.690690
 CYCLE:    22 TIME:   0.020 TIME LEFT:  2.00D  GRAD.:     5.931 HEAT: 4.684636
 CYCLE:    23 TIME:   0.020 TIME LEFT:  2.00D  GRAD.:     6.217 HEAT: 4.675247
 CYCLE:    24 TIME:   0.034 TIME LEFT:  2.00D  GRAD.:     5.923 HEAT: 4.669569
 CYCLE:    25 TIME:   0.017 TIME LEFT:  2.00D  GRAD.:     5.375 HEAT: 4.661616
 CYCLE:    26 TIME:   0.026 TIME LEFT:  2.00D  GRAD.:     5.065 HEAT: 4.658342
 CYCLE:    27 TIME:   0.013 TIME LEFT:  2.00D  GRAD.:     3.459 HEAT: 4.649662
 CYCLE:    28 TIME:   0.014 TIME LEFT:  2.00D  GRAD.:     4.387 HEAT: 4.645784
 CYCLE:    29 TIME:   0.014 TIME LEFT:  2.00D  GRAD.:     3.289 HEAT: 4.637570
 CYCLE:    30 TIME:   0.014 TIME LEFT:  2.00D  GRAD.:     5.662 HEAT: 4.631731
 CYCLE:    31 TIME:   0.013 TIME LEFT:  2.00D  GRAD.:     4.888 HEAT: 4.621470
 CYCLE:    32 TIME:   0.014 TIME LEFT:  2.00D  GRAD.:     3.518 HEAT: 4.612518
 CYCLE:    33 TIME:   0.013 TIME LEFT:  2.00D  GRAD.:     4.228 HEAT: 4.608097
 CYCLE:    34 TIME:   0.014 TIME LEFT:  2.00D  GRAD.:     3.897 HEAT: 4.601854
 CYCLE:    35 TIME:   0.014 TIME LEFT:  2.00D  GRAD.:     3.394 HEAT: 4.593775
 CYCLE:    36 TIME:   0.018 TIME LEFT:  2.00D  GRAD.:     2.949 HEAT: 4.584769
 CYCLE:    37 TIME:   0.016 TIME LEFT:  2.00D  GRAD.:     3.796 HEAT: 4.573473
 CYCLE:    38 TIME:   0.014 TIME LEFT:  2.00D  GRAD.:     4.334 HEAT: 4.564442
 CYCLE:    39 TIME:   0.014 TIME LEFT:  2.00D  GRAD.:     3.054 HEAT: 4.554435
 CYCLE:    40 TIME:   0.014 TIME LEFT:  2.00D  GRAD.:     3.216 HEAT: 4.545010
 CYCLE:    41 TIME:   0.014 TIME LEFT:  2.00D  GRAD.:     3.404 HEAT: 4.533891
 CYCLE:    42 TIME:   0.014 TIME LEFT:  2.00D  GRAD.:     3.532 HEAT: 4.526223
 CYCLE:    43 TIME:   0.014 TIME LEFT:  2.00D  GRAD.:     2.102 HEAT: 4.517379
 CYCLE:    44 TIME:   0.022 TIME LEFT:  2.00D  GRAD.:     2.711 HEAT: 4.507319
 CYCLE:    45 TIME:   0.015 TIME LEFT:  2.00D  GRAD.:     2.797 HEAT: 4.497168
 CYCLE:    46 TIME:   0.016 TIME LEFT:  2.00D  GRAD.:     2.612 HEAT: 4.487036
 CYCLE:    47 TIME:   0.014 TIME LEFT:  2.00D  GRAD.:     2.711 HEAT: 4.477076
 CYCLE:    48 TIME:   0.014 TIME LEFT:  2.00D  GRAD.:     2.677 HEAT: 4.466673
 CYCLE:    49 TIME:   0.016 TIME LEFT:  2.00D  GRAD.:     3.284 HEAT: 4.449617
 CYCLE:    50 TIME:   0.014 TIME LEFT:  2.00D  GRAD.:     2.669 HEAT: 4.437203
 CYCLE:    51 TIME:   0.017 TIME LEFT:  2.00D  GRAD.:     2.903 HEAT: 4.423608
 CYCLE:    52 TIME:   0.016 TIME LEFT:  2.00D  GRAD.:     3.019 HEAT: 4.408800
 CYCLE:    53 TIME:   0.014 TIME LEFT:  2.00D  GRAD.:     2.865 HEAT: 4.395132
 CYCLE:    54 TIME:   0.015 TIME LEFT:  2.00D  GRAD.:     3.020 HEAT: 4.377659
 CYCLE:    55 TIME:   0.014 TIME LEFT:  2.00D  GRAD.:     2.967 HEAT: 4.362892
 CYCLE:    56 TIME:   0.015 TIME LEFT:  2.00D  GRAD.:     2.884 HEAT: 4.350647
 CYCLE:    57 TIME:   0.014 TIME LEFT:  2.00D  GRAD.:     3.827 HEAT: 4.345058
 CYCLE:    58 TIME:   0.014 TIME LEFT:  2.00D  GRAD.:     2.578 HEAT: 4.331478
 CYCLE:    59 TIME:   0.014 TIME LEFT:  2.00D  GRAD.:     2.127 HEAT: 4.320177
 CYCLE:    60 TIME:   0.016 TIME LEFT:  2.00D  GRAD.:     2.504 HEAT: 4.306381
 CYCLE:    61 TIME:   0.017 TIME LEFT:  2.00D  GRAD.:     2.287 HEAT: 4.297511
 CYCLE:    62 TIME:   0.016 TIME LEFT:  2.00D  GRAD.:     2.052 HEAT: 4.287377
 CYCLE:    63 TIME:   0.015 TIME LEFT:  2.00D  GRAD.:     2.034 HEAT: 4.273531
 CYCLE:    64 TIME:   0.015 TIME LEFT:  2.00D  GRAD.:     2.517 HEAT: 4.259235
 CYCLE:    65 TIME:   0.015 TIME LEFT:  2.00D  GRAD.:     4.678 HEAT: 4.256061
 CYCLE:    66 TIME:   0.014 TIME LEFT:  2.00D  GRAD.:     3.490 HEAT: 4.233898
 CYCLE:    67 TIME:   0.014 TIME LEFT:  2.00D  GRAD.:     2.930 HEAT: 4.220362
 CYCLE:    68 TIME:   0.014 TIME LEFT:  2.00D  GRAD.:     3.391 HEAT: 4.182904
 CYCLE:    69 TIME:   0.014 TIME LEFT:  2.00D  GRAD.:     3.972 HEAT: 4.158667
 CYCLE:    70 TIME:   0.014 TIME LEFT:  2.00D  GRAD.:     5.582 HEAT: 4.111182
 CYCLE:    71 TIME:   0.014 TIME LEFT:  2.00D  GRAD.:     5.677 HEAT: 4.104384
 CYCLE:    72 TIME:   0.014 TIME LEFT:  2.00D  GRAD.:     3.646 HEAT: 4.060542
 CYCLE:    73 TIME:   0.014 TIME LEFT:  2.00D  GRAD.:     4.130 HEAT: 4.045961
 CYCLE:    74 TIME:   0.014 TIME LEFT:  2.00D  GRAD.:     2.761 HEAT: 4.032513
 CYCLE:    75 TIME:   0.014 TIME LEFT:  2.00D  GRAD.:     2.138 HEAT: 4.017233
 CYCLE:    76 TIME:   0.014 TIME LEFT:  2.00D  GRAD.:     3.132 HEAT: 4.010110
 CYCLE:    77 TIME:   0.013 TIME LEFT:  2.00D  GRAD.:     2.800 HEAT: 3.999891
 CYCLE:    78 TIME:   0.014 TIME LEFT:  2.00D  GRAD.:     2.920 HEAT: 3.982491
 CYCLE:    79 TIME:   0.014 TIME LEFT:  2.00D  GRAD.:     3.891 HEAT: 3.953173
 CYCLE:    80 TIME:   0.014 TIME LEFT:  2.00D  GRAD.:     3.125 HEAT: 3.935520
 CYCLE:    81 TIME:   0.014 TIME LEFT:  2.00D  GRAD.:     3.409 HEAT: 3.917289
 CYCLE:    82 TIME:   0.015 TIME LEFT:  2.00D  GRAD.:     3.368 HEAT: 3.893185
 CYCLE:    83 TIME:   0.014 TIME LEFT:  2.00D  GRAD.:     4.990 HEAT: 3.875677
 CYCLE:    84 TIME:   0.013 TIME LEFT:  2.00D  GRAD.:     3.225 HEAT: 3.860241
 CYCLE:    85 TIME:   0.014 TIME LEFT:  2.00D  GRAD.:     2.232 HEAT: 3.845719
 CYCLE:    86 TIME:   0.015 TIME LEFT:  2.00D  GRAD.:     3.065 HEAT: 3.832472
 CYCLE:    87 TIME:   0.014 TIME LEFT:  2.00D  GRAD.:     3.015 HEAT: 3.825472
 CYCLE:    88 TIME:   0.014 TIME LEFT:  2.00D  GRAD.:     2.493 HEAT: 3.817519
 CYCLE:    89 TIME:   0.015 TIME LEFT:  2.00D  GRAD.:     2.814 HEAT: 3.804777
 CYCLE:    90 TIME:   0.013 TIME LEFT:  2.00D  GRAD.:     1.869 HEAT: 3.800118
 CYCLE:    91 TIME:   0.014 TIME LEFT:  2.00D  GRAD.:     1.895 HEAT: 3.791225
 CYCLE:    92 TIME:   0.014 TIME LEFT:  2.00D  GRAD.:     1.981 HEAT: 3.780267
 CYCLE:    93 TIME:   0.015 TIME LEFT:  2.00D  GRAD.:     3.204 HEAT: 3.764462
 CYCLE:    94 TIME:   0.014 TIME LEFT:  2.00D  GRAD.:     3.086 HEAT: 3.747674
 CYCLE:    95 TIME:   0.014 TIME LEFT:  2.00D  GRAD.:     3.218 HEAT: 3.719545
 CYCLE:    96 TIME:   0.014 TIME LEFT:  2.00D  GRAD.:     3.233 HEAT: 3.690939
 CYCLE:    97 TIME:   0.014 TIME LEFT:  2.00D  GRAD.:     7.168 HEAT: 3.681695
 CYCLE:    98 TIME:   0.014 TIME LEFT:  2.00D  GRAD.:     5.682 HEAT: 3.655798
 CYCLE:    99 TIME:   0.013 TIME LEFT:  2.00D  GRAD.:     3.675 HEAT: 3.632202
 CYCLE:   100 TIME:   0.014 TIME LEFT:  2.00D  GRAD.:     2.851 HEAT: 3.605844
 CYCLE:   101 TIME:   0.014 TIME LEFT:  2.00D  GRAD.:     3.739 HEAT: 3.581694
 CYCLE:   102 TIME:   0.014 TIME LEFT:  2.00D  GRAD.:     2.915 HEAT: 3.571063
 CYCLE:   103 TIME:   0.014 TIME LEFT:  2.00D  GRAD.:     2.211 HEAT: 3.561483
 CYCLE:   104 TIME:   0.014 TIME LEFT:  2.00D  GRAD.:     1.928 HEAT: 3.554609
 CYCLE:   105 TIME:   0.014 TIME LEFT:  2.00D  GRAD.:     1.707 HEAT: 3.549749
 CYCLE:   106 TIME:   0.015 TIME LEFT:  2.00D  GRAD.:     1.653 HEAT: 3.544867
 CYCLE:   107 TIME:   0.015 TIME LEFT:  2.00D  GRAD.:     1.689 HEAT: 3.540243
 CYCLE:   108 TIME:   0.015 TIME LEFT:  2.00D  GRAD.:     1.553 HEAT: 3.536291
 CYCLE:   109 TIME:   0.015 TIME LEFT:  2.00D  GRAD.:     1.500 HEAT: 3.532087
 CYCLE:   110 TIME:   0.014 TIME LEFT:  2.00D  GRAD.:     1.543 HEAT: 3.527092
 CYCLE:   111 TIME:   0.014 TIME LEFT:  2.00D  GRAD.:     1.657 HEAT: 3.521971
 CYCLE:   112 TIME:   0.014 TIME LEFT:  2.00D  GRAD.:     1.969 HEAT: 3.517939
 CYCLE:   113 TIME:   0.014 TIME LEFT:  2.00D  GRAD.:     1.610 HEAT: 3.514976
 CYCLE:   114 TIME:   0.014 TIME LEFT:  2.00D  GRAD.:     1.441 HEAT: 3.511960
 CYCLE:   115 TIME:   0.015 TIME LEFT:  2.00D  GRAD.:     1.290 HEAT: 3.508467
 CYCLE:   116 TIME:   0.014 TIME LEFT:  2.00D  GRAD.:     1.248 HEAT: 3.505324
 CYCLE:   117 TIME:   0.014 TIME LEFT:  2.00D  GRAD.:     1.198 HEAT: 3.502425
 CYCLE:   118 TIME:   0.014 TIME LEFT:  2.00D  GRAD.:     1.138 HEAT: 3.499989
 CYCLE:   119 TIME:   0.014 TIME LEFT:  2.00D  GRAD.:     1.192 HEAT: 3.497438
 CYCLE:   120 TIME:   0.014 TIME LEFT:  2.00D  GRAD.:     0.989 HEAT: 3.495064
 CYCLE:   121 TIME:   0.014 TIME LEFT:  2.00D  GRAD.:     0.777 HEAT: 3.493388
 CYCLE:   122 TIME:   0.014 TIME LEFT:  2.00D  GRAD.:     0.568 HEAT: 3.492327
 CYCLE:   123 TIME:   0.014 TIME LEFT:  2.00D  GRAD.:     0.554 HEAT: 3.491481
 CYCLE:   124 TIME:   0.014 TIME LEFT:  2.00D  GRAD.:     0.608 HEAT: 3.490639
 CYCLE:   125 TIME:   0.014 TIME LEFT:  2.00D  GRAD.:     0.624 HEAT: 3.489709
 CYCLE:   126 TIME:   0.014 TIME LEFT:  2.00D  GRAD.:     0.615 HEAT: 3.488714
 CYCLE:   127 TIME:   0.015 TIME LEFT:  2.00D  GRAD.:     0.748 HEAT: 3.487489
 CYCLE:   128 TIME:   0.015 TIME LEFT:  2.00D  GRAD.:     0.961 HEAT: 3.485776
 CYCLE:   129 TIME:   0.015 TIME LEFT:  2.00D  GRAD.:     1.263 HEAT: 3.482679
 CYCLE:   130 TIME:   0.015 TIME LEFT:  2.00D  GRAD.:     1.517 HEAT: 3.478086
 CYCLE:   131 TIME:   0.015 TIME LEFT:  2.00D  GRAD.:     1.300 HEAT: 3.474785
 CYCLE:   132 TIME:   0.015 TIME LEFT:  2.00D  GRAD.:     1.648 HEAT: 3.469540
 CYCLE:   133 TIME:   0.014 TIME LEFT:  2.00D  GRAD.:     1.459 HEAT: 3.467377
 CYCLE:   134 TIME:   0.014 TIME LEFT:  2.00D  GRAD.:     1.049 HEAT: 3.462870
 CYCLE:   135 TIME:   0.015 TIME LEFT:  2.00D  GRAD.:     0.879 HEAT: 3.459615
 CYCLE:   136 TIME:   0.015 TIME LEFT:  2.00D  GRAD.:     0.835 HEAT: 3.457992
 CYCLE:   137 TIME:   0.014 TIME LEFT:  2.00D  GRAD.:     0.700 HEAT: 3.456742
 CYCLE:   138 TIME:   0.014 TIME LEFT:  2.00D  GRAD.:     0.709 HEAT: 3.455625
 CYCLE:   139 TIME:   0.014 TIME LEFT:  2.00D  GRAD.:     0.791 HEAT: 3.454485
 CYCLE:   140 TIME:   0.014 TIME LEFT:  2.00D  GRAD.:     0.846 HEAT: 3.453075
 CYCLE:   141 TIME:   0.014 TIME LEFT:  2.00D  GRAD.:     0.718 HEAT: 3.451837
 CYCLE:   142 TIME:   0.014 TIME LEFT:  2.00D  GRAD.:     0.624 HEAT: 3.450843
 CYCLE:   143 TIME:   0.014 TIME LEFT:  2.00D  GRAD.:     0.599 HEAT: 3.450017
 CYCLE:   144 TIME:   0.014 TIME LEFT:  2.00D  GRAD.:     0.611 HEAT: 3.449206
 CYCLE:   145 TIME:   0.014 TIME LEFT:  2.00D  GRAD.:     0.658 HEAT: 3.448324
 CYCLE:   146 TIME:   0.014 TIME LEFT:  2.00D  GRAD.:     0.728 HEAT: 3.447300
 CYCLE:   147 TIME:   0.019 TIME LEFT:  2.00D  GRAD.:     0.939 HEAT: 3.445746
 CYCLE:   148 TIME:   0.014 TIME LEFT:  2.00D  GRAD.:     1.217 HEAT: 3.443394
 CYCLE:   149 TIME:   0.020 TIME LEFT:  2.00D  GRAD.:     1.838 HEAT: 3.437847
 CYCLE:   150 TIME:   0.015 TIME LEFT:  2.00D  GRAD.:     2.028 HEAT: 3.432148
 CYCLE:   151 TIME:   0.015 TIME LEFT:  2.00D  GRAD.:     2.719 HEAT: 3.418149
 CYCLE:   152 TIME:   0.017 TIME LEFT:  2.00D  GRAD.:     2.404 HEAT: 3.409094
 CYCLE:   153 TIME:   0.018 TIME LEFT:  2.00D  GRAD.:     2.104 HEAT: 3.397543
 CYCLE:   154 TIME:   0.019 TIME LEFT:  2.00D  GRAD.:     6.023 HEAT: 3.402321
 CYCLE:   155 TIME:   0.017 TIME LEFT:  2.00D  GRAD.:     1.568 HEAT: 3.387279
 CYCLE:   156 TIME:   0.015 TIME LEFT:  2.00D  GRAD.:     1.459 HEAT: 3.381905
 CYCLE:   157 TIME:   0.019 TIME LEFT:  2.00D  GRAD.:     1.709 HEAT: 3.371938
 CYCLE:   158 TIME:   0.016 TIME LEFT:  2.00D  GRAD.:     1.842 HEAT: 3.367739
 CYCLE:   159 TIME:   0.016 TIME LEFT:  2.00D  GRAD.:     1.061 HEAT: 3.365322
 CYCLE:   160 TIME:   0.015 TIME LEFT:  2.00D  GRAD.:     1.214 HEAT: 3.363285
 CYCLE:   161 TIME:   0.014 TIME LEFT:  2.00D  GRAD.:     1.167 HEAT: 3.361447
 CYCLE:   162 TIME:   0.015 TIME LEFT:  2.00D  GRAD.:     1.682 HEAT: 3.358651
 CYCLE:   163 TIME:   0.017 TIME LEFT:  2.00D  GRAD.:     1.718 HEAT: 3.355833
 CYCLE:   164 TIME:   0.016 TIME LEFT:  2.00D  GRAD.:     1.891 HEAT: 3.352884
 CYCLE:   165 TIME:   0.015 TIME LEFT:  2.00D  GRAD.:     1.556 HEAT: 3.349818
 CYCLE:   166 TIME:   0.017 TIME LEFT:  2.00D  GRAD.:     1.556 HEAT: 3.347078
 CYCLE:   167 TIME:   0.017 TIME LEFT:  2.00D  GRAD.:     1.239 HEAT: 3.343864
 CYCLE:   168 TIME:   0.017 TIME LEFT:  2.00D  GRAD.:     1.472 HEAT: 3.341399
 CYCLE:   169 TIME:   0.018 TIME LEFT:  2.00D  GRAD.:     2.242 HEAT: 3.338078
 CYCLE:   170 TIME:   0.019 TIME LEFT:  2.00D  GRAD.:     1.782 HEAT: 3.334308
 CYCLE:   171 TIME:   0.021 TIME LEFT:  2.00D  GRAD.:     1.105 HEAT: 3.328368
 CYCLE:   172 TIME:   0.021 TIME LEFT:  2.00D  GRAD.:     1.653 HEAT: 3.324511
 CYCLE:   173 TIME:   0.023 TIME LEFT:  2.00D  GRAD.:     2.828 HEAT: 3.321142
 CYCLE:   174 TIME:   0.017 TIME LEFT:  2.00D  GRAD.:     2.575 HEAT: 3.319435
 CYCLE:   175 TIME:   0.018 TIME LEFT:  2.00D  GRAD.:     1.690 HEAT: 3.313950
 CYCLE:   176 TIME:   0.016 TIME LEFT:  2.00D  GRAD.:     1.767 HEAT: 3.308650
 CYCLE:   177 TIME:   0.018 TIME LEFT:  2.00D  GRAD.:     2.437 HEAT: 3.294999
 CYCLE:   178 TIME:   0.016 TIME LEFT:  2.00D  GRAD.:     3.249 HEAT: 3.288039
 CYCLE:   179 TIME:   0.014 TIME LEFT:  2.00D  GRAD.:     3.215 HEAT: 3.282407
 CYCLE:   180 TIME:   0.014 TIME LEFT:  2.00D  GRAD.:     2.877 HEAT: 3.274927
 CYCLE:   181 TIME:   0.016 TIME LEFT:  2.00D  GRAD.:     2.964 HEAT: 3.267370
 CYCLE:   182 TIME:   0.017 TIME LEFT:  2.00D  GRAD.:     2.390 HEAT: 3.261042
 CYCLE:   183 TIME:   0.016 TIME LEFT:  2.00D  GRAD.:     1.869 HEAT: 3.255176
 CYCLE:   184 TIME:   0.019 TIME LEFT:  2.00D  GRAD.:     2.483 HEAT: 3.249418
 CYCLE:   185 TIME:   0.016 TIME LEFT:  2.00D  GRAD.:     2.621 HEAT: 3.243282
 CYCLE:   186 TIME:   0.014 TIME LEFT:  2.00D  GRAD.:     1.971 HEAT: 3.237875
 CYCLE:   187 TIME:   0.016 TIME LEFT:  2.00D  GRAD.:     2.138 HEAT: 3.234379
 CYCLE:   188 TIME:   0.017 TIME LEFT:  2.00D  GRAD.:     2.055 HEAT: 3.230800
 CYCLE:   189 TIME:   0.019 TIME LEFT:  2.00D  GRAD.:     1.540 HEAT: 3.227429
 CYCLE:   190 TIME:   0.015 TIME LEFT:  2.00D  GRAD.:     1.693 HEAT: 3.222779
 CYCLE:   191 TIME:   0.018 TIME LEFT:  2.00D  GRAD.:     1.673 HEAT: 3.218945
 CYCLE:   192 TIME:   0.015 TIME LEFT:  2.00D  GRAD.:     1.791 HEAT: 3.215505
 CYCLE:   193 TIME:   0.017 TIME LEFT:  2.00D  GRAD.:     1.252 HEAT: 3.212725
 CYCLE:   194 TIME:   0.018 TIME LEFT:  2.00D  GRAD.:     1.242 HEAT: 3.210865
 CYCLE:   195 TIME:   0.015 TIME LEFT:  2.00D  GRAD.:     0.882 HEAT: 3.208807
 CYCLE:   196 TIME:   0.016 TIME LEFT:  2.00D  GRAD.:     0.959 HEAT: 3.207303
 CYCLE:   197 TIME:   0.015 TIME LEFT:  2.00D  GRAD.:     0.822 HEAT: 3.205488
 CYCLE:   198 TIME:   0.015 TIME LEFT:  2.00D  GRAD.:     0.838 HEAT: 3.204477
 CYCLE:   199 TIME:   0.014 TIME LEFT:  2.00D  GRAD.:     0.778 HEAT: 3.203750
 CYCLE:   200 TIME:   0.014 TIME LEFT:  2.00D  GRAD.:     0.941 HEAT: 3.203087
 CYCLE:   201 TIME:   0.017 TIME LEFT:  2.00D  GRAD.:     0.981 HEAT: 3.201917
 CYCLE:   202 TIME:   0.016 TIME LEFT:  2.00D  GRAD.:     1.007 HEAT: 3.200656
 CYCLE:   203 TIME:   0.014 TIME LEFT:  2.00D  GRAD.:     1.024 HEAT: 3.198855
 CYCLE:   204 TIME:   0.014 TIME LEFT:  2.00D  GRAD.:     1.051 HEAT: 3.196878
 CYCLE:   205 TIME:   0.014 TIME LEFT:  2.00D  GRAD.:     1.367 HEAT: 3.194553
 CYCLE:   206 TIME:   0.014 TIME LEFT:  2.00D  GRAD.:     1.557 HEAT: 3.191523
 CYCLE:   207 TIME:   0.014 TIME LEFT:  2.00D  GRAD.:     1.853 HEAT: 3.186687
 CYCLE:   208 TIME:   0.014 TIME LEFT:  2.00D  GRAD.:     2.044 HEAT: 3.180897
 CYCLE:   209 TIME:   0.014 TIME LEFT:  2.00D  GRAD.:     2.304 HEAT: 3.173777
 CYCLE:   210 TIME:   0.014 TIME LEFT:  2.00D  GRAD.:     2.883 HEAT: 3.169962
 CYCLE:   211 TIME:   0.014 TIME LEFT:  2.00D  GRAD.:     1.596 HEAT: 3.163924
 CYCLE:   212 TIME:   0.015 TIME LEFT:  2.00D  GRAD.:     1.640 HEAT: 3.159486
 CYCLE:   213 TIME:   0.015 TIME LEFT:  2.00D  GRAD.:     1.800 HEAT: 3.153695
 CYCLE:   214 TIME:   0.015 TIME LEFT:  2.00D  GRAD.:     2.232 HEAT: 3.147091
 CYCLE:   215 TIME:   0.014 TIME LEFT:  2.00D  GRAD.:     2.430 HEAT: 3.142490
 CYCLE:   216 TIME:   0.015 TIME LEFT:  2.00D  GRAD.:     2.556 HEAT: 3.137992
 CYCLE:   217 TIME:   0.018 TIME LEFT:  2.00D  GRAD.:     1.623 HEAT: 3.133913
 CYCLE:   218 TIME:   0.016 TIME LEFT:  2.00D  GRAD.:     1.444 HEAT: 3.130094
 CYCLE:   219 TIME:   0.015 TIME LEFT:  2.00D  GRAD.:     1.410 HEAT: 3.126965
 CYCLE:   220 TIME:   0.015 TIME LEFT:  2.00D  GRAD.:     0.820 HEAT: 3.124997
 CYCLE:   221 TIME:   0.015 TIME LEFT:  2.00D  GRAD.:     0.822 HEAT: 3.123690
 CYCLE:   222 TIME:   0.015 TIME LEFT:  2.00D  GRAD.:     0.997 HEAT: 3.123219
 CYCLE:   223 TIME:   0.014 TIME LEFT:  2.00D  GRAD.:     0.764 HEAT: 3.122415
 CYCLE:   224 TIME:   0.014 TIME LEFT:  2.00D  GRAD.:     0.585 HEAT: 3.121804
 CYCLE:   225 TIME:   0.014 TIME LEFT:  2.00D  GRAD.:     0.637 HEAT: 3.121368
 CYCLE:   226 TIME:   0.014 TIME LEFT:  2.00D  GRAD.:     0.544 HEAT: 3.120891
 CYCLE:   227 TIME:   0.015 TIME LEFT:  2.00D  GRAD.:     0.680 HEAT: 3.120347
 CYCLE:   228 TIME:   0.014 TIME LEFT:  2.00D  GRAD.:     0.590 HEAT: 3.119951
 CYCLE:   229 TIME:   0.015 TIME LEFT:  2.00D  GRAD.:     0.501 HEAT: 3.119414
 CYCLE:   230 TIME:   0.014 TIME LEFT:  2.00D  GRAD.:     0.431 HEAT: 3.119070
 CYCLE:   231 TIME:   0.017 TIME LEFT:  2.00D  GRAD.:     0.364 HEAT: 3.118767
 CYCLE:   232 TIME:   0.017 TIME LEFT:  2.00D  GRAD.:     0.358 HEAT: 3.118581
 CYCLE:   233 TIME:   0.014 TIME LEFT:  2.00D  GRAD.:     0.246 HEAT: 3.118469
 CYCLE:   234 TIME:   0.014 TIME LEFT:  2.00D  GRAD.:     0.230 HEAT: 3.118366
 CYCLE:   235 TIME:   0.019 TIME LEFT:  2.00D  GRAD.:     0.259 HEAT: 3.118265
 CYCLE:   236 TIME:   0.014 TIME LEFT:  2.00D  GRAD.:     0.295 HEAT: 3.118172
 CYCLE:   237 TIME:   0.014 TIME LEFT:  2.00D  GRAD.:     0.318 HEAT: 3.118042
 CYCLE:   238 TIME:   0.014 TIME LEFT:  2.00D  GRAD.:     0.352 HEAT: 3.117899
 CYCLE:   239 TIME:   0.014 TIME LEFT:  2.00D  GRAD.:     0.400 HEAT: 3.117693
 CYCLE:   240 TIME:   0.014 TIME LEFT:  2.00D  GRAD.:     0.475 HEAT: 3.117401
 CYCLE:   241 TIME:   0.014 TIME LEFT:  2.00D  GRAD.:     0.528 HEAT: 3.117041
 CYCLE:   242 TIME:   0.014 TIME LEFT:  2.00D  GRAD.:     0.527 HEAT: 3.116467
 CYCLE:   243 TIME:   0.014 TIME LEFT:  2.00D  GRAD.:     0.517 HEAT: 3.116065
 CYCLE:   244 TIME:   0.014 TIME LEFT:  2.00D  GRAD.:     0.449 HEAT: 3.115628
 CYCLE:   245 TIME:   0.014 TIME LEFT:  2.00D  GRAD.:     0.436 HEAT: 3.115179
 CYCLE:   246 TIME:   0.014 TIME LEFT:  2.00D  GRAD.:     0.398 HEAT: 3.114894
 CYCLE:   247 TIME:   0.017 TIME LEFT:  2.00D  GRAD.:     0.332 HEAT: 3.114654
 CYCLE:   248 TIME:   0.015 TIME LEFT:  2.00D  GRAD.:     0.291 HEAT: 3.114506
 CYCLE:   249 TIME:   0.014 TIME LEFT:  2.00D  GRAD.:     0.264 HEAT: 3.114425
 CYCLE:   250 TIME:   0.014 TIME LEFT:  2.00D  GRAD.:     0.235 HEAT: 3.114311
 CYCLE:   251 TIME:   0.014 TIME LEFT:  2.00D  GRAD.:     0.223 HEAT: 3.114237
 CYCLE:   252 TIME:   0.014 TIME LEFT:  2.00D  GRAD.:     0.232 HEAT: 3.114134
 CYCLE:   253 TIME:   0.014 TIME LEFT:  2.00D  GRAD.:     0.262 HEAT: 3.114032
 CYCLE:   254 TIME:   0.015 TIME LEFT:  2.00D  GRAD.:     0.344 HEAT: 3.113877
 CYCLE:   255 TIME:   0.014 TIME LEFT:  2.00D  GRAD.:     0.386 HEAT: 3.113686
 CYCLE:   256 TIME:   0.015 TIME LEFT:  2.00D  GRAD.:     0.780 HEAT: 3.113099
 CYCLE:   257 TIME:   0.015 TIME LEFT:  2.00D  GRAD.:     0.703 HEAT: 3.112590
 CYCLE:   258 TIME:   0.017 TIME LEFT:  2.00D  GRAD.:     1.221 HEAT: 3.108849
 CYCLE:   259 TIME:   0.015 TIME LEFT:  2.00D  GRAD.:     0.677 HEAT: 3.107794
 CYCLE:   260 TIME:   0.015 TIME LEFT:  2.00D  GRAD.:     0.503 HEAT: 3.106508
 CYCLE:   261 TIME:   0.015 TIME LEFT:  2.00D  GRAD.:     0.612 HEAT: 3.106017
 CYCLE:   262 TIME:   0.014 TIME LEFT:  2.00D  GRAD.:     0.330 HEAT: 3.105833
 CYCLE:   263 TIME:   0.014 TIME LEFT:  2.00D  GRAD.:     0.284 HEAT: 3.105680
 CYCLE:   264 TIME:   0.014 TIME LEFT:  2.00D  GRAD.:     0.199 HEAT: 3.105613
 CYCLE:   265 TIME:   0.014 TIME LEFT:  2.00D  GRAD.:     0.225 HEAT: 3.105581
 CYCLE:   266 TIME:   0.014 TIME LEFT:  2.00D  GRAD.:     0.250 HEAT: 3.105537
 CYCLE:   267 TIME:   0.014 TIME LEFT:  2.00D  GRAD.:     0.194 HEAT: 3.105489
 CYCLE:   268 TIME:   0.014 TIME LEFT:  2.00D  GRAD.:     0.174 HEAT: 3.105423
 CYCLE:   269 TIME:   0.014 TIME LEFT:  2.00D  GRAD.:     0.167 HEAT: 3.105367
 CYCLE:   270 TIME:   0.014 TIME LEFT:  2.00D  GRAD.:     0.251 HEAT: 3.105245
 CYCLE:   271 TIME:   0.014 TIME LEFT:  2.00D  GRAD.:     0.249 HEAT: 3.105149
 CYCLE:   272 TIME:   0.015 TIME LEFT:  2.00D  GRAD.:     0.310 HEAT: 3.104810
 CYCLE:   273 TIME:   0.014 TIME LEFT:  2.00D  GRAD.:     0.456 HEAT: 3.104523
 CYCLE:   274 TIME:   0.014 TIME LEFT:  2.00D  GRAD.:     0.615 HEAT: 3.103773
 CYCLE:   275 TIME:   0.014 TIME LEFT:  2.00D  GRAD.:     0.939 HEAT: 3.102910
 CYCLE:   276 TIME:   0.016 TIME LEFT:  2.00D  GRAD.:     0.985 HEAT: 3.101617
 CYCLE:   277 TIME:   0.015 TIME LEFT:  2.00D  GRAD.:     1.310 HEAT: 3.099243
 CYCLE:   278 TIME:   0.015 TIME LEFT:  2.00D  GRAD.:     0.852 HEAT: 3.097463
 CYCLE:   279 TIME:   0.015 TIME LEFT:  2.00D  GRAD.:     1.015 HEAT: 3.095094
 CYCLE:   280 TIME:   0.015 TIME LEFT:  2.00D  GRAD.:     0.772 HEAT: 3.093882
 CYCLE:   281 TIME:   0.015 TIME LEFT:  2.00D  GRAD.:     1.984 HEAT: 3.096060
 CYCLE:   282 TIME:   0.014 TIME LEFT:  2.00D  GRAD.:     0.673 HEAT: 3.092978
 CYCLE:   283 TIME:   0.014 TIME LEFT:  2.00D  GRAD.:     0.557 HEAT: 3.093004
 CYCLE:   284 TIME:   0.014 TIME LEFT:  2.00D  GRAD.:     0.401 HEAT: 3.092512
 CYCLE:   285 TIME:   0.014 TIME LEFT:  2.00D  GRAD.:     0.394 HEAT: 3.092316
 CYCLE:   286 TIME:   0.014 TIME LEFT:  2.00D  GRAD.:     0.352 HEAT: 3.092121
 CYCLE:   287 TIME:   0.018 TIME LEFT:  2.00D  GRAD.:     0.243 HEAT: 3.091902
 CYCLE:   288 TIME:   0.015 TIME LEFT:  2.00D  GRAD.:     0.227 HEAT: 3.091798
 CYCLE:   289 TIME:   0.015 TIME LEFT:  2.00D  GRAD.:     0.318 HEAT: 3.091704
 CYCLE:   290 TIME:   0.015 TIME LEFT:  2.00D  GRAD.:     0.156 HEAT: 3.091631
 CYCLE:   291 TIME:   0.015 TIME LEFT:  2.00D  GRAD.:     0.179 HEAT: 3.091602
 CYCLE:   292 TIME:   0.014 TIME LEFT:  2.00D  GRAD.:     0.142 HEAT: 3.091572
 CYCLE:   293 TIME:   0.014 TIME LEFT:  2.00D  GRAD.:     0.094 HEAT: 3.091565
 CYCLE:   294 TIME:   0.014 TIME LEFT:  2.00D  GRAD.:     0.035 HEAT: 3.091555

     RMS GRADIENT =  0.03451  IS LESS THAN CUTOFF =  0.05000



 -------------------------------------------------------------------------------
pm3  precise nosym
 InChI=1S/C12H20/c1-3-5-7-11-9-12(10-11)8-6-4-2/h5-8,11-12H,3-4,9-10H2,1-2H3



     GEOMETRY OPTIMISED USING EIGENVECTOR FOLLOWING (EF).     
     SCF FIELD WAS ACHIEVED                                   


                              PM3 CALCULATION
                                                       MOPAC2012 (Version: 13.159M)
                                                       Mon Jun  2 11:03:28 2014
                                                       No. of days left =   6




          FINAL HEAT OF FORMATION =          3.09155 KCAL/MOL =      12.93507 KJ/MOL


          TOTAL ENERGY            =      -1730.20450 EV
          ELECTRONIC ENERGY       =     -10360.86390 EV  POINT GROUP:     C1  
          CORE-CORE REPULSION     =       8630.65939 EV
          COSMO AREA              =        249.23 SQUARE ANGSTROMS
          COSMO VOLUME            =        248.97 CUBIC ANGSTROMS

          GRADIENT NORM           =          0.03451
          IONIZATION POTENTIAL    =          9.749886 EV
          HOMO LUMO ENERGIES (EV) =         -9.750  0.979
          NO. OF FILLED LEVELS    =         34
          MOLECULAR WEIGHT        =        164.290

          MOLECULAR DIMENSIONS (Angstroms)

            Atom       Atom       Distance
            H    25    H    27    12.09781
            H    20    H    17     5.18117
            H    15    H    23     4.75490


          SCF CALCULATIONS        =        306
          COMPUTATION TIME        =          4.583 SECONDS




   ATOM   CHEMICAL          X               Y               Z
  NUMBER   SYMBOL      (ANGSTROMS)     (ANGSTROMS)     (ANGSTROMS)
 
     1       C          0.83117379  *   0.72355722  *  -1.21552122  *
     2       C         -1.31865630  *   0.40888393  *  -0.88301275  *
     3       C         -0.30797739  *   1.53504465  *  -0.54748536  *
     4       C         -0.17186964  *  -0.41890143  *  -1.51711713  *
     5       C          4.30781323  *   0.20226705  *   0.37905584  *
     6       C         -3.87316019  *  -1.03687883  *   1.62412284  *
     7       C          5.41214858  *  -0.54584794  *  -0.33644920  *
     8       C         -5.01449826  *  -0.20733354  *   2.17216694  *
     9       C          1.92381567  *   0.33970823  *  -0.28827033  *
    10       C         -1.93468429  *  -0.22517023  *   0.30841674  *
    11       C          3.21002200  *   0.56979353  *  -0.55582793  *
    12       C         -3.25225121  *  -0.38613645  *   0.43869504  *
    13       H          1.23130390  *   1.20625479  *  -2.13227497  *
    14       H         -2.09050428  *   0.72017293  *  -1.61846128  *
    15       H         -0.52333282  *   2.50180618  *  -1.02480404  *
    16       H         -0.16914193  *   1.72293625  *   0.52862323  *
    17       H         -0.30426104  *  -0.64288715  *  -2.58536532  *
    18       H          0.04642496  *  -1.36957044  *  -1.00606555  *
    19       H          3.92718068  *  -0.40259344  *   1.22644317  *
    20       H          4.70654232  *   1.13305805  *   0.83073429  *
    21       H         -3.12290912  *  -1.22164423  *   2.41895645  *
    22       H         -4.23954862  *  -2.03804600  *   1.31954181  *
    23       H          5.04860522  *  -1.48855268  *  -0.76534066  *
    24       H          6.23336127  *  -0.79138083  *   0.34889105  *
    25       H          5.83608812  *   0.04453784  *  -1.15961369  *
    26       H         -5.79366874  *  -0.03841223  *   1.41699983  *
    27       H         -5.48888725  *  -0.70260062  *   3.02891900  *
    28       H         -4.67035758  *   0.77831617  *   2.51113182  *
    29       H          3.51934730  *   1.05323459  *  -1.49166486  *
    30       H          1.61209091  *  -0.14941877  *   0.64443175  *
    31       H         -3.94735147  *  -0.04383994  *  -0.33902027  *
    32       H         -1.23747714  *  -0.56110489  *   1.08776462  *

           Empirical Formula: C12 H20  =    32 atoms



      MOLECULAR POINT GROUP   :   C1  


                  EIGENVALUES  
 -41.17329 -37.21599 -35.95844 -31.08373 -28.76852 -25.48419 -24.69983 -22.75936
 -20.92305 -20.28063 -19.35132 -18.47739 -17.08607 -16.70667 -15.82191 -15.59311
 -15.18736 -14.79491 -14.58048 -14.13827 -13.67576 -13.60851 -13.25302 -13.17793
 -12.96580 -12.38199 -12.16954 -12.06755 -11.95655 -11.88222 -11.45679 -11.38682
  -9.79578  -9.74989   0.97856   1.10292   3.18952   3.27983   3.57408   3.60710
   3.67956   3.76866   3.78279   3.84104   3.91804   3.93460   3.95960   3.99372
   4.06109   4.13782   4.19603   4.26365   4.38768   4.43262   4.52647   4.56573
   4.61095   4.71429   4.72465   4.82755   4.85660   4.85920   5.13881   5.32718
   5.71789   5.89639   5.98976   6.06477


              NET ATOMIC CHARGES AND DIPOLE CONTRIBUTIONS

  ATOM NO.   TYPE          CHARGE      No. of ELECS.   s-Pop       p-Pop       
    1          C          -0.060193        4.0602     1.17824     2.88195
    2          C          -0.060183        4.0602     1.17824     2.88194
    3          C          -0.102424        4.1024     1.17715     2.92528
    4          C          -0.102425        4.1024     1.17715     2.92528
    5          C          -0.062551        4.0626     1.14590     2.91665
    6          C          -0.062550        4.0626     1.14590     2.91666
    7          C          -0.105858        4.1059     1.13764     2.96821
    8          C          -0.105866        4.1059     1.13765     2.96822
    9          C          -0.143266        4.1433     1.19509     2.94817
   10          C          -0.143285        4.1433     1.19509     2.94819
   11          C          -0.144110        4.1441     1.19784     2.94627
   12          C          -0.144100        4.1441     1.19784     2.94626
   13          H           0.072820        0.9272     0.92718
   14          H           0.072815        0.9272     0.92718
   15          H           0.056137        0.9439     0.94386
   16          H           0.065005        0.9350     0.93500
   17          H           0.056138        0.9439     0.94386
   18          H           0.064998        0.9350     0.93500
   19          H           0.051345        0.9487     0.94866
   20          H           0.053218        0.9468     0.94678
   21          H           0.051343        0.9487     0.94866
   22          H           0.053230        0.9468     0.94677
   23          H           0.040138        0.9599     0.95986
   24          H           0.036773        0.9632     0.96323
   25          H           0.037840        0.9622     0.96216
   26          H           0.037847        0.9622     0.96215
   27          H           0.036775        0.9632     0.96322
   28          H           0.040134        0.9599     0.95987
   29          H           0.101541        0.8985     0.89846
   30          H           0.103584        0.8964     0.89642
   31          H           0.101546        0.8985     0.89845
   32          H           0.103582        0.8964     0.89642
 DIPOLE           X         Y         Z       TOTAL
 POINT-CHG.     0.026    -0.056     0.118     0.133
 HYBRID         0.000     0.000     0.001     0.001
 SUM            0.026    -0.056     0.119     0.134


          ATOMIC ORBITAL ELECTRON POPULATIONS

    Atom      s        px        py        pz   
    1  C   1.17824   0.93542   0.97045   0.97608
    2  C   1.17824   0.95941   0.96297   0.95957
    3  C   1.17715   0.95229   0.96251   1.01048
    4  C   1.17715   0.95251   0.96926   1.00351
    5  C   1.14590   0.95435   0.99588   0.96642
    6  C   1.14590   0.97875   0.97818   0.95973
    7  C   1.13764   0.97409   0.99727   0.99686
    8  C   1.13765   0.97390   0.99487   0.99945
    9  C   1.19509   0.94623   1.00978   0.99216
   10  C   1.19509   0.96004   1.00468   0.98347
   11  C   1.19784   0.95007   1.00203   0.99417
   12  C   1.19784   0.96153   0.99948   0.98524
   13  H   0.92718
   14  H   0.92718
   15  H   0.94386
   16  H   0.93500
   17  H   0.94386
   18  H   0.93500
   19  H   0.94866
   20  H   0.94678
   21  H   0.94866
   22  H   0.94677
   23  H   0.95986
   24  H   0.96323
   25  H   0.96216
   26  H   0.96215
   27  H   0.96322
   28  H   0.95987
   29  H   0.89846
   30  H   0.89642
   31  H   0.89845
   32  H   0.89642
 *******************************************************************************
 ** Site#: 14399           For non-commercial use only        Version 13.159M **
 *******************************************************************************
 ** Cite this work as: MOPAC2012, James J. P. Stewart, Stewart Computational  **
 ** Chemistry, Version 13.159M web: HTTP://OpenMOPAC.net  Days remaining:   6 **
 *******************************************************************************
 **                                                                           **
 **                                MOPAC2012                                  **
 **                                                                           **
 *******************************************************************************

                            PM3 CALCULATION RESULTS


 *******************************************************************************
 *  CALCULATION DONE:                                Mon Jun  2 11:03:28 2014  *
 *  PM3      - The PM3 Hamiltonian to be used
 *  OLDGEO   - PREVIOUS GEOMETRY TO BE USED
 *  PRECISE  - CRITERIA TO BE INCREASED BY 100 TIMES
 *  NOSYM    - POINT-GROUP SYMMETRY SET TO C1
 *  T=       - A TIME OF 172800.0 SECONDS REQUESTED
 *  DUMP=N   - RESTART FILE WRITTEN EVERY  7200.000 SECONDS
 *  THERMO   - THERMODYNAMIC QUANTITIES TO BE CALCULATED
 *******************************************************************************
oldgeo thermo nosym precise  pm3

   ATOM   CHEMICAL          X               Y               Z
  NUMBER   SYMBOL      (ANGSTROMS)     (ANGSTROMS)     (ANGSTROMS)
 
     1       C          0.83117379  *   0.72355722  *  -1.21552122  *
     2       C         -1.31865630  *   0.40888393  *  -0.88301275  *
     3       C         -0.30797739  *   1.53504465  *  -0.54748536  *
     4       C         -0.17186964  *  -0.41890143  *  -1.51711713  *
     5       C          4.30781323  *   0.20226705  *   0.37905584  *
     6       C         -3.87316019  *  -1.03687883  *   1.62412284  *
     7       C          5.41214858  *  -0.54584794  *  -0.33644920  *
     8       C         -5.01449826  *  -0.20733354  *   2.17216694  *
     9       C          1.92381567  *   0.33970823  *  -0.28827033  *
    10       C         -1.93468429  *  -0.22517023  *   0.30841674  *
    11       C          3.21002200  *   0.56979353  *  -0.55582793  *
    12       C         -3.25225121  *  -0.38613645  *   0.43869504  *
    13       H          1.23130390  *   1.20625479  *  -2.13227497  *
    14       H         -2.09050428  *   0.72017293  *  -1.61846128  *
    15       H         -0.52333282  *   2.50180618  *  -1.02480404  *
    16       H         -0.16914193  *   1.72293625  *   0.52862323  *
    17       H         -0.30426104  *  -0.64288715  *  -2.58536532  *
    18       H          0.04642496  *  -1.36957044  *  -1.00606555  *
    19       H          3.92718068  *  -0.40259344  *   1.22644317  *
    20       H          4.70654232  *   1.13305805  *   0.83073429  *
    21       H         -3.12290912  *  -1.22164423  *   2.41895645  *
    22       H         -4.23954862  *  -2.03804600  *   1.31954181  *
    23       H          5.04860522  *  -1.48855268  *  -0.76534066  *
    24       H          6.23336127  *  -0.79138083  *   0.34889105  *
    25       H          5.83608812  *   0.04453784  *  -1.15961369  *
    26       H         -5.79366874  *  -0.03841223  *   1.41699983  *
    27       H         -5.48888725  *  -0.70260062  *   3.02891900  *
    28       H         -4.67035758  *   0.77831617  *   2.51113182  *
    29       H          3.51934730  *   1.05323459  *  -1.49166486  *
    30       H          1.61209091  *  -0.14941877  *   0.64443175  *
    31       H         -3.94735147  *  -0.04383994  *  -0.33902027  *
    32       H         -1.23747714  *  -0.56110489  *   1.08776462  *
 


          CARTESIAN COORDINATES 

    NO.       ATOM         X         Y         Z

     1         C        0.8312    0.7236   -1.2155
     2         C       -1.3187    0.4089   -0.8830
     3         C       -0.3080    1.5350   -0.5475
     4         C       -0.1719   -0.4189   -1.5171
     5         C        4.3078    0.2023    0.3791
     6         C       -3.8732   -1.0369    1.6241
     7         C        5.4121   -0.5458   -0.3364
     8         C       -5.0145   -0.2073    2.1722
     9         C        1.9238    0.3397   -0.2883
    10         C       -1.9347   -0.2252    0.3084
    11         C        3.2100    0.5698   -0.5558
    12         C       -3.2523   -0.3861    0.4387
    13         H        1.2313    1.2063   -2.1323
    14         H       -2.0905    0.7202   -1.6185
    15         H       -0.5233    2.5018   -1.0248
    16         H       -0.1691    1.7229    0.5286
    17         H       -0.3043   -0.6429   -2.5854
    18         H        0.0464   -1.3696   -1.0061
    19         H        3.9272   -0.4026    1.2264
    20         H        4.7065    1.1331    0.8307
    21         H       -3.1229   -1.2216    2.4190
    22         H       -4.2395   -2.0380    1.3195
    23         H        5.0486   -1.4886   -0.7653
    24         H        6.2334   -0.7914    0.3489
    25         H        5.8361    0.0445   -1.1596
    26         H       -5.7937   -0.0384    1.4170
    27         H       -5.4889   -0.7026    3.0289
    28         H       -4.6704    0.7783    2.5111
    29         H        3.5193    1.0532   -1.4917
    30         H        1.6121   -0.1494    0.6444
    31         H       -3.9474   -0.0438   -0.3390
    32         H       -1.2375   -0.5611    1.0878

  H: (PM3): J. J. P. STEWART, J. COMP. CHEM. 10, 209 (1989).
  C: (PM3): J. J. P. STEWART, J. COMP. CHEM. 10, 209 (1989).

           Empirical Formula: C12 H20  =    32 atoms



      MOLECULAR POINT GROUP   :   C1  


      RHF CALCULATION, NO. OF DOUBLY OCCUPIED LEVELS =   34



          HEAT OF FORMATION =       3.091555 KCALS/MOLE


          INTERNAL COORDINATE DERIVATIVES

   NUMBER  ATOM       BOND         ANGLE      DIHEDRAL

     1       C     -0.001312    -0.000274     0.000255
     2       C      0.000130     0.000004    -0.000827
     3       C      0.000030     0.003115    -0.000690
     4       C     -0.001187    -0.001011     0.001129
     5       C      0.002746    -0.007070     0.001081
     6       C      0.006553     0.000925    -0.000013
     7       C      0.001704    -0.004040     0.011768
     8       C     -0.004194    -0.006854    -0.002024
     9       C     -0.004232    -0.002773     0.002086
    10       C      0.002026    -0.002613    -0.004867
    11       C      0.008608     0.002377    -0.004979
    12       C     -0.002606    -0.000308    -0.001800
    13       H     -0.000032     0.000737     0.000745
    14       H     -0.002343     0.000356    -0.000776
    15       H     -0.002761    -0.002097    -0.003518
    16       H      0.002535    -0.000656     0.002071
    17       H      0.000652     0.000952    -0.000086
    18       H     -0.002908    -0.000745     0.000205
    19       H      0.000916     0.001733    -0.004674
    20       H     -0.003270     0.002899     0.004667
    21       H      0.010283     0.004050     0.003956
    22       H     -0.004518     0.003061    -0.002189
    23       H     -0.001015     0.008637     0.000551
    24       H     -0.002429    -0.000423     0.000118
    25       H      0.005322     0.000879    -0.012121
    26       H      0.001199     0.000859     0.002327
    27       H     -0.004564    -0.001295    -0.002140
    28       H     -0.004006     0.000127    -0.001112
    29       H     -0.005195    -0.001206     0.003825
    30       H      0.002221    -0.002045     0.001792
    31       H     -0.001284     0.002246     0.000990
    32       H      0.002930     0.000452     0.004249


          GRADIENT NORM =   0.03488


          TIME FOR SCF CALCULATION =    0.01

          TIME FOR DERIVATIVES     =    0.01

          MOLECULAR WEIGHT =  164.29



          ROTATIONAL CONSTANTS IN CM(-1)

          A =    0.07277562   B =    0.00911933   C =    0.00864810



           PRINCIPAL MOMENTS OF INERTIA IN UNITS OF 10**(-40)*GRAM-CM**2

          A =      384.6449   B =     3069.6078   C =     3236.8700


          ORIENTATION OF MOLECULE IN FORCE CALCULATION

    NO.       ATOM         X         Y         Z

     1          C      -1.0990   -0.0216    1.1748
     2          C       1.0990   -0.0216    1.1748
     3          C       0.0001    1.0713    1.1748
     4          C       0.0000   -1.1139    1.1364
     5          C      -4.1835    0.0441   -1.1453
     6          C       4.1838   -0.0021   -1.1459
     7          C      -5.2648   -1.0124   -1.0689
     8          C       5.2642    1.0519   -1.0325
     9          C      -1.9724   -0.0004   -0.0242
    10          C       1.9726   -0.0005   -0.0242
    11          C      -3.3039    0.0052    0.0543
    12          C       3.3040   -0.0060    0.0542
    13          H      -1.6981   -0.0382    2.1098
    14          H       1.6981   -0.0380    2.1098
    15          H       0.0001    1.7218    2.0612
    16          H       0.0002    1.7237    0.2877
    17          H      -0.0001   -1.7951    1.9994
    18          H      -0.0001   -1.7348    0.2269
    19          H      -3.5965   -0.0807   -2.0773
    20          H      -4.6384    1.0532   -1.2107
    21          H       3.5967    0.1549   -2.0729
    22          H       4.6394   -1.0079   -1.2467
    23          H      -4.8391   -2.0236   -1.0357
    24          H      -5.9292   -0.9636   -1.9410
    25          H      -5.8885   -0.8919   -0.1731
    26          H       5.8879    0.9007   -0.1413
    27          H       5.9287    1.0340   -1.9057
    28          H       4.8378    2.0610   -0.9641
    29          H      -3.8172   -0.0141    1.0245
    30          H      -1.4564    0.0126   -0.9937
    31          H       3.8172   -0.0188    1.0246
    32          H       1.4566    0.0185   -0.9936


    FIRST DERIVATIVES WILL BE USED IN THE CALCULATION OF SECOND DERIVATIVES

          ESTIMATED TIME TO COMPLETE CALCULATION =        7.46 SECONDS

    FOR POINT-GROUP C1   THERE ARE   1 UNIQUE SYMMETRY FUNCTIONS.

 STEP:   1 TIME =     0.06 SECS, INTEGRAL =      0.06 TIME LEFT: 172799.92
 STEP:   2 TIME =     0.06 SECS, INTEGRAL =      0.12 TIME LEFT: 172799.86
 STEP:   3 TIME =     0.06 SECS, INTEGRAL =      0.19 TIME LEFT: 172799.79
 STEP:   4 TIME =     0.06 SECS, INTEGRAL =      0.25 TIME LEFT: 172799.73
 STEP:   5 TIME =     0.06 SECS, INTEGRAL =      0.31 TIME LEFT: 172799.67
 STEP:   6 TIME =     0.06 SECS, INTEGRAL =      0.37 TIME LEFT: 172799.61
 STEP:   7 TIME =     0.06 SECS, INTEGRAL =      0.43 TIME LEFT: 172799.55
 STEP:   8 TIME =     0.06 SECS, INTEGRAL =      0.49 TIME LEFT: 172799.49
 STEP:   9 TIME =     0.06 SECS, INTEGRAL =      0.55 TIME LEFT: 172799.43
 STEP:  10 TIME =     0.06 SECS, INTEGRAL =      0.61 TIME LEFT: 172799.37
 STEP:  11 TIME =     0.06 SECS, INTEGRAL =      0.68 TIME LEFT: 172799.30
 STEP:  12 TIME =     0.06 SECS, INTEGRAL =      0.74 TIME LEFT: 172799.24
 STEP:  13 TIME =     0.06 SECS, INTEGRAL =      0.80 TIME LEFT: 172799.18
 STEP:  14 TIME =     0.06 SECS, INTEGRAL =      0.86 TIME LEFT: 172799.12
 STEP:  15 TIME =     0.06 SECS, INTEGRAL =      0.92 TIME LEFT: 172799.06
 STEP:  16 TIME =     0.06 SECS, INTEGRAL =      0.98 TIME LEFT: 172799.00
 STEP:  17 TIME =     0.07 SECS, INTEGRAL =      1.04 TIME LEFT: 172798.94
 STEP:  18 TIME =     0.06 SECS, INTEGRAL =      1.11 TIME LEFT: 172798.88
 STEP:  19 TIME =     0.06 SECS, INTEGRAL =      1.16 TIME LEFT: 172798.82
 STEP:  20 TIME =     0.06 SECS, INTEGRAL =      1.22 TIME LEFT: 172798.76
 STEP:  21 TIME =     0.07 SECS, INTEGRAL =      1.29 TIME LEFT: 172798.69
 STEP:  22 TIME =     0.07 SECS, INTEGRAL =      1.36 TIME LEFT: 172798.62
 STEP:  23 TIME =     0.06 SECS, INTEGRAL =      1.42 TIME LEFT: 172798.56
 STEP:  24 TIME =     0.06 SECS, INTEGRAL =      1.48 TIME LEFT: 172798.51
 STEP:  25 TIME =     0.06 SECS, INTEGRAL =      1.54 TIME LEFT: 172798.45
 STEP:  26 TIME =     0.07 SECS, INTEGRAL =      1.60 TIME LEFT: 172798.38
 STEP:  27 TIME =     0.06 SECS, INTEGRAL =      1.66 TIME LEFT: 172798.32
 STEP:  28 TIME =     0.06 SECS, INTEGRAL =      1.72 TIME LEFT: 172798.26
 STEP:  29 TIME =     0.07 SECS, INTEGRAL =      1.79 TIME LEFT: 172798.19
 STEP:  30 TIME =     0.06 SECS, INTEGRAL =      1.85 TIME LEFT: 172798.13
 STEP:  31 TIME =     0.06 SECS, INTEGRAL =      1.92 TIME LEFT: 172798.06
 STEP:  32 TIME =     0.07 SECS, INTEGRAL =      1.99 TIME LEFT: 172797.99
 STEP:  33 TIME =     0.06 SECS, INTEGRAL =      2.05 TIME LEFT: 172797.93
 STEP:  34 TIME =     0.06 SECS, INTEGRAL =      2.11 TIME LEFT: 172797.87
 STEP:  35 TIME =     0.07 SECS, INTEGRAL =      2.17 TIME LEFT: 172797.81
 STEP:  36 TIME =     0.06 SECS, INTEGRAL =      2.23 TIME LEFT: 172797.75
 STEP:  37 TIME =     0.06 SECS, INTEGRAL =      2.29 TIME LEFT: 172797.69
 STEP:  38 TIME =     0.06 SECS, INTEGRAL =      2.36 TIME LEFT: 172797.62
 STEP:  39 TIME =     0.06 SECS, INTEGRAL =      2.42 TIME LEFT: 172797.56
 STEP:  40 TIME =     0.06 SECS, INTEGRAL =      2.48 TIME LEFT: 172797.50
 STEP:  41 TIME =     0.06 SECS, INTEGRAL =      2.54 TIME LEFT: 172797.44
 STEP:  42 TIME =     0.06 SECS, INTEGRAL =      2.60 TIME LEFT: 172797.38
 STEP:  43 TIME =     0.06 SECS, INTEGRAL =      2.67 TIME LEFT: 172797.31
 STEP:  44 TIME =     0.06 SECS, INTEGRAL =      2.73 TIME LEFT: 172797.25
 STEP:  45 TIME =     0.06 SECS, INTEGRAL =      2.79 TIME LEFT: 172797.19
 STEP:  46 TIME =     0.06 SECS, INTEGRAL =      2.85 TIME LEFT: 172797.13
 STEP:  47 TIME =     0.07 SECS, INTEGRAL =      2.92 TIME LEFT: 172797.06
 STEP:  48 TIME =     0.06 SECS, INTEGRAL =      2.98 TIME LEFT: 172797.00
 STEP:  49 TIME =     0.06 SECS, INTEGRAL =      3.04 TIME LEFT: 172796.94
 STEP:  50 TIME =     0.06 SECS, INTEGRAL =      3.10 TIME LEFT: 172796.88
 STEP:  51 TIME =     0.06 SECS, INTEGRAL =      3.16 TIME LEFT: 172796.82
 STEP:  52 TIME =     0.07 SECS, INTEGRAL =      3.23 TIME LEFT: 172796.75
 STEP:  53 TIME =     0.06 SECS, INTEGRAL =      3.29 TIME LEFT: 172796.69
 STEP:  54 TIME =     0.06 SECS, INTEGRAL =      3.35 TIME LEFT: 172796.63
 STEP:  55 TIME =     0.06 SECS, INTEGRAL =      3.41 TIME LEFT: 172796.57
 STEP:  56 TIME =     0.06 SECS, INTEGRAL =      3.47 TIME LEFT: 172796.51
 STEP:  57 TIME =     0.06 SECS, INTEGRAL =      3.54 TIME LEFT: 172796.44
 STEP:  58 TIME =     0.07 SECS, INTEGRAL =      3.60 TIME LEFT: 172796.38
 STEP:  59 TIME =     0.06 SECS, INTEGRAL =      3.66 TIME LEFT: 172796.32
 STEP:  60 TIME =     0.06 SECS, INTEGRAL =      3.73 TIME LEFT: 172796.25
 STEP:  61 TIME =     0.06 SECS, INTEGRAL =      3.79 TIME LEFT: 172796.19
 STEP:  62 TIME =     0.06 SECS, INTEGRAL =      3.85 TIME LEFT: 172796.13
 STEP:  63 TIME =     0.06 SECS, INTEGRAL =      3.91 TIME LEFT: 172796.07
 STEP:  64 TIME =     0.06 SECS, INTEGRAL =      3.98 TIME LEFT: 172796.00
 STEP:  65 TIME =     0.06 SECS, INTEGRAL =      4.04 TIME LEFT: 172795.94
 STEP:  66 TIME =     0.06 SECS, INTEGRAL =      4.10 TIME LEFT: 172795.88
 STEP:  67 TIME =     0.07 SECS, INTEGRAL =      4.17 TIME LEFT: 172795.82
 STEP:  68 TIME =     0.06 SECS, INTEGRAL =      4.22 TIME LEFT: 172795.76
 STEP:  69 TIME =     0.06 SECS, INTEGRAL =      4.29 TIME LEFT: 172795.69
 STEP:  70 TIME =     0.06 SECS, INTEGRAL =      4.35 TIME LEFT: 172795.63
 STEP:  71 TIME =     0.06 SECS, INTEGRAL =      4.41 TIME LEFT: 172795.57
 STEP:  72 TIME =     0.06 SECS, INTEGRAL =      4.47 TIME LEFT: 172795.51
 STEP:  73 TIME =     0.06 SECS, INTEGRAL =      4.53 TIME LEFT: 172795.45
 STEP:  74 TIME =     0.07 SECS, INTEGRAL =      4.61 TIME LEFT: 172795.37
 STEP:  75 TIME =     0.06 SECS, INTEGRAL =      4.67 TIME LEFT: 172795.31
 STEP:  76 TIME =     0.06 SECS, INTEGRAL =      4.73 TIME LEFT: 172795.25
 STEP:  77 TIME =     0.07 SECS, INTEGRAL =      4.80 TIME LEFT: 172795.18
 STEP:  78 TIME =     0.06 SECS, INTEGRAL =      4.86 TIME LEFT: 172795.12
 STEP:  79 TIME =     0.06 SECS, INTEGRAL =      4.92 TIME LEFT: 172795.06
 STEP:  80 TIME =     0.06 SECS, INTEGRAL =      4.98 TIME LEFT: 172795.00
 STEP:  81 TIME =     0.06 SECS, INTEGRAL =      5.05 TIME LEFT: 172794.94
 STEP:  82 TIME =     0.06 SECS, INTEGRAL =      5.11 TIME LEFT: 172794.87
 STEP:  83 TIME =     0.06 SECS, INTEGRAL =      5.17 TIME LEFT: 172794.81
 STEP:  84 TIME =     0.06 SECS, INTEGRAL =      5.23 TIME LEFT: 172794.75
 STEP:  85 TIME =     0.06 SECS, INTEGRAL =      5.29 TIME LEFT: 172794.69
 STEP:  86 TIME =     0.07 SECS, INTEGRAL =      5.36 TIME LEFT: 172794.62
 STEP:  87 TIME =     0.06 SECS, INTEGRAL =      5.42 TIME LEFT: 172794.56
 STEP:  88 TIME =     0.06 SECS, INTEGRAL =      5.48 TIME LEFT: 172794.50
 STEP:  89 TIME =     0.07 SECS, INTEGRAL =      5.55 TIME LEFT: 172794.43
 STEP:  90 TIME =     0.06 SECS, INTEGRAL =      5.61 TIME LEFT: 172794.37
 STEP:  91 TIME =     0.06 SECS, INTEGRAL =      5.67 TIME LEFT: 172794.31
 STEP:  92 TIME =     0.07 SECS, INTEGRAL =      5.73 TIME LEFT: 172794.25
 STEP:  93 TIME =     0.07 SECS, INTEGRAL =      5.80 TIME LEFT: 172794.18
 STEP:  94 TIME =     0.07 SECS, INTEGRAL =      5.86 TIME LEFT: 172794.12
 STEP:  95 TIME =     0.07 SECS, INTEGRAL =      5.93 TIME LEFT: 172794.05
 STEP:  96 TIME =     0.06 SECS, INTEGRAL =      6.00 TIME LEFT: 172793.99

(To convert to Hartree/Bohr^2, multiply by (10^(-21) x N x a0^2)/(4.184 x 627.51) = 0.0642)


           FORCE MATRIX IN MILLIDYNES/ANGSTROM


                  C  1       C  2       C  3       C  4       C  5       C  6
 ------------------------------------------------------------------------------
     C    1  14.910467
     C    2   1.787680  14.910107
     C    3   3.387636   3.389936  14.257825
     C    4   3.390358   3.388142   1.828479  14.258659
     C    5   0.144196   0.001968   0.018855   0.018170  14.693670
     C    6   0.002014   0.144151   0.018085   0.018828   0.000406  14.694270
     C    7   0.019012   0.000933   0.001733   0.003454   4.408755   0.000695
     C    8   0.000821   0.019149   0.003357   0.001783   0.000271   4.409161
     C    9   5.062518   0.042589   0.595482   0.594694   0.821913   0.000540
     C   10   0.042652   5.062490   0.594743   0.595267   0.000741   0.821879
     C   11   0.846943   0.003418   0.032541   0.033496   4.963445   0.000292
     C   12   0.003427   0.846868   0.033359   0.032662   0.000414   4.963338
     H   13   4.418982   0.027365   0.426024   0.425765   0.001840   0.000264
     H   14   0.027342   4.418533   0.425897   0.425949   0.000294   0.001868
     H   15   0.444132   0.444087   4.724346   0.031084   0.002388   0.002210
     H   16   0.452823   0.452982   4.672007   0.027692   0.001127   0.000896
     H   17   0.444015   0.444073   0.031043   4.724177   0.002167   0.002335
     H   18   0.452963   0.452824   0.027691   4.671884   0.000810   0.001154
     H   19   0.002866   0.000224   0.000705   0.000419   4.441740   0.000130
     H   20   0.019503   0.000342   0.003225   0.002028   4.421779   0.000157
     H   21   0.000292   0.002938   0.000423   0.000635   0.000136   4.441892
     H   22   0.000356   0.019527   0.002080   0.003202   0.000131   4.422096
     H   23   0.000798   0.000186   0.000384   0.000332   0.460038   0.000177
     H   24   0.003256   0.000224   0.000313   0.000808   0.449718   0.000117
     H   25   0.000749   0.000170   0.000218   0.000341   0.464280   0.000137
     H   26   0.000148   0.000824   0.000329   0.000220   0.000108   0.464189
     H   27   0.000195   0.003267   0.000834   0.000324   0.000137   0.449588
     H   28   0.000154   0.000764   0.000333   0.000379   0.000123   0.460050
     H   29   0.085868   0.000728   0.008162   0.008283   0.430640   0.000200
     H   30   0.434626   0.002148   0.018135   0.018331   0.083248   0.000368
     H   31   0.000783   0.085928   0.008237   0.008145   0.000243   0.430668
     H   32   0.002114   0.434625   0.018353   0.018197   0.000433   0.083285


                  C  7       C  8       C  9       C 10       C 11       C 12
 ------------------------------------------------------------------------------
     C    7  14.348688
     C    8   0.000296  14.348943
     C    9   0.042079   0.000435  18.334602
     C   10   0.000574   0.042065   0.010046  18.335185
     C   11   0.717182   0.000507  10.684714   0.000805  18.192557
     C   12   0.000432   0.717161   0.000824  10.684686   0.001210  18.192192
     H   13   0.000617   0.000185   0.445219   0.003630   0.055504   0.000648
     H   14   0.000220   0.000601   0.003668   0.445722   0.000707   0.055460
     H   15   0.000315   0.000737   0.031996   0.031775   0.003280   0.003478
     H   16   0.000342   0.000375   0.031035   0.031354   0.003234   0.003275
     H   17   0.000700   0.000276   0.031657   0.032041   0.003505   0.003283
     H   18   0.000345   0.000311   0.031335   0.031008   0.003249   0.003207
     H   19   0.435099   0.000073   0.050526   0.000190   0.458905   0.000167
     H   20   0.445074   0.000087   0.032035   0.000250   0.408520   0.000139
     H   21   0.000097   0.435047   0.000197   0.050490   0.000198   0.458999
     H   22   0.000144   0.445087   0.000218   0.031987   0.000115   0.408515
     H   23   4.747046   0.000198   0.002267   0.000310   0.016231   0.000140
     H   24   4.750317   0.000171   0.007103   0.000192   0.052399   0.000081
     H   25   4.725810   0.000146   0.001834   0.000205   0.027641   0.000151
     H   26   0.000143   4.725437   0.000260   0.001842   0.000169   0.027669
     H   27   0.000117   4.750497   0.000184   0.007063   0.000107   0.052366
     H   28   0.000126   4.746712   0.000252   0.002237   0.000121   0.016245
     H   29   0.026293   0.000167   0.469034   0.000400   4.758634   0.000266
     H   30   0.008469   0.000202   4.742246   0.003822   0.468161   0.001537
     H   31   0.000203   0.026517   0.000383   0.469013   0.000256   4.758749
     H   32   0.000186   0.008379   0.003811   4.742532   0.001524   0.468158


                  H 13       H 14       H 15       H 16       H 17       H 18
 ------------------------------------------------------------------------------
     H   13   4.913817
     H   14   0.002479   4.913350
     H   15   0.027055   0.027114   5.339795
     H   16   0.030290   0.030282   0.548691   5.301802
     H   17   0.027129   0.027068   0.003384   0.001038   5.339587
     H   18   0.030232   0.030359   0.001038   0.002823   0.548695   5.301691
     H   19   0.000612   0.000079   0.000155   0.000237   0.000094   0.000210
     H   20   0.000452   0.000077   0.000655   0.000339   0.000190   0.000199
     H   21   0.000098   0.000606   0.000086   0.000224   0.000148   0.000241
     H   22   0.000076   0.000464   0.000185   0.000178   0.000649   0.000354
     H   23   0.000168   0.000083   0.000113   0.000128   0.000116   0.000113
     H   24   0.000149   0.000057   0.000112   0.000091   0.000203   0.000158
     H   25   0.000217   0.000090   0.000108   0.000125   0.000117   0.000136
     H   26   0.000087   0.000195   0.000114   0.000125   0.000125   0.000132
     H   27   0.000075   0.000133   0.000216   0.000142   0.000127   0.000099
     H   28   0.000068   0.000162   0.000124   0.000108   0.000140   0.000107
     H   29   0.029895   0.000187   0.001299   0.000732   0.001376   0.000734
     H   30   0.036587   0.000843   0.001368   0.017230   0.001378   0.017770
     H   31   0.000190   0.029922   0.001375   0.000747   0.001293   0.000724
     H   32   0.000843   0.036816   0.001372   0.017631   0.001384   0.017340


                  H 19       H 20       H 21       H 22       H 23       H 24
 ------------------------------------------------------------------------------
     H   19   5.053229
     H   20   0.566356   5.019791
     H   21   0.000039   0.000043   5.053441
     H   22   0.000042   0.000045   0.566417   5.020138
     H   23   0.024880   0.047635   0.000067   0.000058   5.485733
     H   24   0.030162   0.028698   0.000042   0.000054   0.574051   5.488085
     H   25   0.047578   0.024043   0.000051   0.000070   0.578570   0.572453
     H   26   0.000049   0.000053   0.047585   0.024018   0.000056   0.000029
     H   27   0.000030   0.000050   0.030192   0.028703   0.000040   0.000057
     H   28   0.000053   0.000027   0.024909   0.047641   0.000048   0.000049
     H   29   0.038247   0.017662   0.000060   0.000094   0.002605   0.001986
     H   30   0.029967   0.009723   0.000174   0.000112   0.000497   0.001568
     H   31   0.000053   0.000099   0.038255   0.017631   0.000098   0.000079
     H   32   0.000200   0.000128   0.029973   0.009730   0.000075   0.000073


                  H 25       H 26       H 27       H 28       H 29       H 30
 ------------------------------------------------------------------------------
     H   25   5.471074
     H   26   0.000024   5.470606
     H   27   0.000053   0.572311   5.488076
     H   28   0.000054   0.578355   0.574101   5.485385
     H   29   0.020161   0.000083   0.000083   0.000078   5.140211
     H   30   0.000635   0.000078   0.000096   0.000099   0.104907   5.121076
     H   31   0.000076   0.020203   0.002004   0.002610   0.000134   0.000348
     H   32   0.000082   0.000627   0.001585   0.000496   0.000352   0.006945


                  H 31       H 32
 ------------------------------
     H   31   5.140359
     H   32   0.104937   5.121294


          HEAT OF FORMATION =       3.091555 KCALS/MOLE

          ZERO POINT ENERGY     180.530 KCAL/MOL


           NORMAL COORDINATE ANALYSIS (Total motion = 1 Angstrom)


   Root No.       1         2         3         4         5         6         7         8

                 1 A       2 A       3 A       4 A       5 A       6 A       7 A       8 A   

                  24.1      32.6      41.5      77.6      79.9     105.5     130.4     165.4
  
           1   -0.0001    0.0027    0.0002   -0.0035    0.0004    0.0003    0.0038   -0.0018
           2    0.0059   -0.0077    0.0131   -0.0131   -0.0205    0.0057    0.0074   -0.0016
           3    0.0177   -0.0033   -0.0100    0.0001   -0.0029   -0.0023    0.0096    0.0153
           4    0.0001    0.0027    0.0000   -0.0035    0.0003   -0.0004    0.0038   -0.0018
           5   -0.0064   -0.0073   -0.0128   -0.0081    0.0231   -0.0056    0.0075   -0.0011
           6    0.0175    0.0037   -0.0102   -0.0012   -0.0022   -0.0026   -0.0093   -0.0153
           7    0.0060    0.0024    0.0128   -0.0060   -0.0208    0.0051    0.0040   -0.0016
           8   -0.0003   -0.0074    0.0002   -0.0105    0.0013    0.0002    0.0079   -0.0014
           9    0.0238   -0.0085   -0.0160   -0.0196   -0.0029    0.0017   -0.0266    0.0043
          10   -0.0061    0.0030   -0.0126   -0.0011    0.0216   -0.0051    0.0038   -0.0016
          11   -0.0004   -0.0077    0.0003   -0.0112    0.0014   -0.0002    0.0069   -0.0013
          12    0.0233    0.0092   -0.0159    0.0178   -0.0070    0.0016    0.0270   -0.0047
          13    0.0202    0.0098   -0.0193   -0.0047   -0.0061    0.0079    0.0036    0.0103
          14    0.0103   -0.0049    0.0107    0.0207    0.0164   -0.0062    0.0024   -0.0034
          15   -0.0097   -0.0126    0.0160    0.0024    0.0070   -0.0122    0.0099   -0.0005
          16   -0.0204    0.0086    0.0197   -0.0027    0.0071   -0.0080    0.0034    0.0106
          17   -0.0099   -0.0051   -0.0119    0.0159   -0.0208    0.0067    0.0030   -0.0036
          18   -0.0103    0.0115    0.0162    0.0002    0.0065   -0.0120   -0.0100    0.0007
          19    0.0366   -0.0238    0.0098    0.0178    0.0095    0.0160   -0.0065    0.0053
          20   -0.0083    0.0314   -0.0200   -0.0025   -0.0003   -0.0123    0.0113    0.0016
          21   -0.0357    0.0136    0.0041    0.0011   -0.0037    0.0267   -0.0229   -0.0086
          22   -0.0362   -0.0241   -0.0111    0.0148   -0.0131   -0.0157   -0.0065    0.0054
          23    0.0089    0.0312    0.0212   -0.0019    0.0009    0.0110    0.0105    0.0014
          24   -0.0352   -0.0131    0.0043   -0.0023   -0.0030    0.0272    0.0233    0.0080
          25    0.0095    0.0064   -0.0090   -0.0045   -0.0032    0.0067   -0.0023   -0.0077
          26    0.0105   -0.0161    0.0206   -0.0286   -0.0275    0.0030   -0.0133    0.0012
          27    0.0107   -0.0062   -0.0031    0.0006   -0.0003   -0.0069    0.0140    0.0205
          28   -0.0096    0.0059    0.0094   -0.0033    0.0039   -0.0068   -0.0024   -0.0072
          29   -0.0103   -0.0155   -0.0206   -0.0217    0.0330   -0.0027   -0.0130    0.0018
          30    0.0103    0.0060   -0.0035   -0.0013    0.0007   -0.0072   -0.0144   -0.0201
          31    0.0088    0.0063   -0.0084   -0.0040   -0.0027    0.0068   -0.0024   -0.0079
          32    0.0068    0.0004    0.0091    0.0321    0.0119    0.0319   -0.0213    0.0038
          33   -0.0014   -0.0099    0.0080    0.0023    0.0044   -0.0104    0.0138    0.0138
          34   -0.0089    0.0058    0.0088   -0.0031    0.0035   -0.0069   -0.0025   -0.0074
          35   -0.0069    0.0001   -0.0100    0.0283   -0.0189   -0.0314   -0.0207    0.0045
          36   -0.0018    0.0095    0.0081   -0.0001    0.0039   -0.0116   -0.0147   -0.0131
          37   -0.0069   -0.0004    0.0067   -0.0027    0.0030   -0.0040    0.0098    0.0063
          38    0.0092   -0.0003    0.0203    0.0009   -0.0349    0.0096    0.0296   -0.0054
          39    0.0133   -0.0051   -0.0056    0.0009   -0.0015   -0.0050    0.0137    0.0200
          40    0.0069    0.0000   -0.0066   -0.0035   -0.0022    0.0041    0.0099    0.0061
          41   -0.0098    0.0003   -0.0200    0.0088    0.0341   -0.0094    0.0298   -0.0047
          42    0.0129    0.0055   -0.0060   -0.0009   -0.0003   -0.0055   -0.0126   -0.0200
          43    0.0098   -0.0005    0.0205   -0.0069   -0.0340    0.0084    0.0118    0.0111
          44   -0.0060   -0.0004    0.0056    0.0054    0.0018   -0.0036    0.0301   -0.0050
          45    0.0280   -0.0136   -0.0200   -0.0313   -0.0033    0.0045   -0.0429    0.0069
          46    0.0096    0.0051    0.0205   -0.0081   -0.0339    0.0077   -0.0036   -0.0140
          47    0.0055   -0.0145   -0.0053   -0.0266    0.0008    0.0040   -0.0138    0.0020
          48    0.0280   -0.0137   -0.0200   -0.0314   -0.0033    0.0045   -0.0427    0.0069
          49   -0.0098    0.0003   -0.0205    0.0009    0.0348   -0.0084    0.0115    0.0110
          50    0.0048   -0.0006   -0.0049    0.0036   -0.0024    0.0034    0.0286   -0.0051
          51    0.0275    0.0149   -0.0200    0.0295   -0.0100    0.0046    0.0441   -0.0077
          52   -0.0097    0.0060   -0.0202   -0.0002    0.0347   -0.0079   -0.0039   -0.0141
          53   -0.0059   -0.0153    0.0058   -0.0270    0.0054   -0.0042   -0.0154    0.0026
          54    0.0271    0.0144   -0.0197    0.0285   -0.0097    0.0043    0.0424   -0.0074
          55    0.0314    0.0078   -0.0239   -0.0031   -0.0072    0.0083    0.0086    0.0259
          56    0.0332   -0.0483    0.0451    0.0355    0.0372   -0.0339    0.0175   -0.0168
          57   -0.0057   -0.0080    0.0086    0.0014    0.0035   -0.0082    0.0109    0.0108
          58    0.0047    0.0414   -0.0467   -0.0252   -0.0205    0.0015    0.0122    0.0159
          59    0.0039    0.0076   -0.0001    0.0116    0.0108   -0.0115    0.0077   -0.0023
          60    0.0004   -0.0406    0.0402    0.0059    0.0219   -0.0457    0.0279   -0.0207
          61   -0.0316    0.0063    0.0242   -0.0009    0.0079   -0.0083    0.0084    0.0259
          62   -0.0322   -0.0471   -0.0479    0.0243   -0.0438    0.0346    0.0184   -0.0173
          63   -0.0070    0.0058    0.0073    0.0005    0.0020   -0.0070   -0.0103   -0.0110
          64   -0.0055    0.0394    0.0488   -0.0186    0.0255   -0.0019    0.0118    0.0164
          65   -0.0041    0.0062   -0.0012    0.0086   -0.0139    0.0130    0.0088   -0.0032
          66   -0.0005    0.0388    0.0418    0.0009    0.0218   -0.0454   -0.0280    0.0213
          67    0.0526   -0.0560    0.0374    0.0395    0.0243    0.0247   -0.0171    0.0028
          68   -0.0021    0.0188   -0.0091    0.0064    0.0052   -0.0072    0.0057    0.0034
          69   -0.0491    0.0413   -0.0182   -0.0054   -0.0233    0.0733   -0.0603    0.0807
          70    0.0426   -0.0206    0.0020    0.0136    0.0032    0.0207   -0.0089    0.0629
          71   -0.0045    0.0293   -0.0215   -0.0123    0.0046   -0.0560    0.0493   -0.0507
          72   -0.0401    0.0111    0.0100    0.0039    0.0014    0.0208   -0.0191   -0.0554
          73    0.0278   -0.0217    0.0133    0.0189    0.0137    0.0099   -0.0023   -0.0534
          74   -0.0332    0.0750   -0.0538   -0.0200   -0.0242    0.0213   -0.0138    0.0562
          75   -0.0385    0.0092    0.0111    0.0042    0.0024    0.0179   -0.0166   -0.0569
          76   -0.0273   -0.0213   -0.0141    0.0150   -0.0174   -0.0100   -0.0023   -0.0497
          77    0.0329    0.0729    0.0562   -0.0123    0.0272   -0.0222   -0.0146    0.0517
          78   -0.0373   -0.0081    0.0123   -0.0041    0.0045    0.0176    0.0162    0.0552
          79   -0.0423   -0.0219   -0.0036    0.0121   -0.0060   -0.0200   -0.0089    0.0596
          80    0.0054    0.0297    0.0231   -0.0125   -0.0016    0.0544    0.0485   -0.0493
          81   -0.0398   -0.0114    0.0100   -0.0041    0.0024    0.0231    0.0208    0.0502
          82   -0.0515   -0.0555   -0.0405    0.0316   -0.0322   -0.0239   -0.0169    0.0025
          83    0.0033    0.0197    0.0104    0.0051   -0.0058    0.0045    0.0036    0.0058
          84   -0.0481   -0.0394   -0.0187   -0.0008   -0.0233    0.0731    0.0605   -0.0762
          85   -0.0002    0.0038   -0.0003   -0.0039   -0.0002    0.0050   -0.0046   -0.0180
          86    0.0003    0.0202   -0.0041    0.0904    0.0429    0.0742   -0.0326    0.0083
          87   -0.0063   -0.0108    0.0121    0.0036    0.0063   -0.0104    0.0122    0.0080
          88    0.0181    0.0093   -0.0170   -0.0053   -0.0063    0.0106   -0.0046   -0.0075
          89    0.0166   -0.0356    0.0337   -0.0882   -0.0604   -0.0330   -0.0101   -0.0014
          90    0.0153   -0.0049   -0.0071   -0.0007   -0.0024   -0.0052    0.0125    0.0201
          91    0.0002    0.0037    0.0005   -0.0038    0.0010   -0.0050   -0.0047   -0.0174
          92   -0.0010    0.0189    0.0027    0.0782   -0.0622   -0.0736   -0.0319    0.0094
          93   -0.0066    0.0108    0.0127    0.0010    0.0046   -0.0130   -0.0134   -0.0072
          94   -0.0182    0.0083    0.0175   -0.0032    0.0070   -0.0109   -0.0048   -0.0067
          95   -0.0158   -0.0340   -0.0334   -0.0722    0.0783    0.0331   -0.0101   -0.0014
          96    0.0146    0.0043   -0.0080   -0.0024   -0.0001   -0.0043   -0.0129   -0.0199


   Root No.       9        10        11        12        13        14        15        16

                 9 A      10 A      11 A      12 A      13 A      14 A      15 A      16 A   

                 180.8     213.5     232.8     313.5     352.0     389.9     420.1     462.9
  
           1   -0.0007   -0.0035   -0.0023   -0.0073    0.0170    0.0042    0.0154    0.0036
           2   -0.0013   -0.0001    0.0063    0.0029    0.0077    0.0207   -0.0167   -0.0121
           3    0.0007    0.0146    0.0070    0.0034   -0.0141   -0.0063   -0.0102   -0.0150
           4    0.0009   -0.0035    0.0023    0.0073    0.0170   -0.0042    0.0154   -0.0036
           5    0.0014    0.0004   -0.0065   -0.0030    0.0071   -0.0205   -0.0169    0.0126
           6    0.0019   -0.0145    0.0068    0.0033    0.0144   -0.0071    0.0096   -0.0149
           7   -0.0012   -0.0032    0.0059    0.0028    0.0194    0.0216    0.0193   -0.0145
           8   -0.0002    0.0000   -0.0009   -0.0042    0.0089    0.0021   -0.0230    0.0016
           9   -0.0077    0.0100   -0.0077    0.0322    0.0157   -0.0017   -0.0242    0.0042
          10    0.0014   -0.0033   -0.0059   -0.0028    0.0193   -0.0216    0.0194    0.0146
          11    0.0006    0.0004    0.0012    0.0031    0.0094   -0.0021   -0.0238   -0.0017
          12   -0.0072   -0.0101   -0.0076    0.0324   -0.0155   -0.0017    0.0234    0.0041
          13   -0.0036    0.0134    0.0026   -0.0289   -0.0108    0.0039   -0.0071    0.0057
          14    0.0025   -0.0120   -0.0141    0.0007   -0.0115   -0.0073   -0.0057   -0.0146
          15    0.0033   -0.0093   -0.0092   -0.0070    0.0091    0.0180   -0.0052    0.0186
          16    0.0026    0.0134   -0.0027    0.0289   -0.0108   -0.0039   -0.0071   -0.0059
          17   -0.0021   -0.0122    0.0145   -0.0004   -0.0112    0.0067   -0.0058    0.0140
          18    0.0028    0.0088   -0.0088   -0.0071   -0.0094    0.0183    0.0050    0.0192
          19   -0.0013    0.0025   -0.0081   -0.0222   -0.0190   -0.0045   -0.0094   -0.0071
          20   -0.0006    0.0000   -0.0033   -0.0098   -0.0065    0.0009   -0.0064   -0.0036
          21   -0.0123   -0.0006   -0.0122   -0.0093   -0.0174   -0.0081   -0.0057   -0.0095
          22    0.0011    0.0026    0.0080    0.0221   -0.0190    0.0045   -0.0093    0.0069
          23    0.0008    0.0000    0.0038    0.0101   -0.0071   -0.0006   -0.0066    0.0039
          24   -0.0126    0.0003   -0.0120   -0.0089    0.0172   -0.0082    0.0054   -0.0094
          25   -0.0112   -0.0057   -0.0186   -0.0058   -0.0011    0.0119   -0.0079    0.0063
          26   -0.0011    0.0024   -0.0012   -0.0017   -0.0100   -0.0229    0.0348    0.0215
          27    0.0087    0.0172    0.0188   -0.0056   -0.0038   -0.0102    0.0047   -0.0134
          28    0.0117   -0.0054    0.0186    0.0058   -0.0011   -0.0119   -0.0079   -0.0062
          29    0.0007    0.0030    0.0005    0.0018   -0.0100    0.0233    0.0348   -0.0212
          30    0.0102   -0.0168    0.0188   -0.0055    0.0034   -0.0095   -0.0035   -0.0143
          31   -0.0114   -0.0060   -0.0195   -0.0088   -0.0026    0.0131   -0.0102    0.0071
          32   -0.0001    0.0114    0.0161    0.0091    0.0129   -0.0033    0.0204    0.0198
          33    0.0098    0.0063    0.0103   -0.0178    0.0067    0.0086    0.0027    0.0165
          34    0.0120   -0.0056    0.0195    0.0089   -0.0028   -0.0131   -0.0102   -0.0069
          35   -0.0009    0.0116   -0.0165   -0.0085    0.0132    0.0030    0.0204   -0.0204
          36    0.0106   -0.0057    0.0097   -0.0181   -0.0063    0.0088   -0.0019    0.0161
          37    0.0072    0.0029    0.0105   -0.0233    0.0198   -0.0003    0.0225   -0.0056
          38   -0.0021   -0.0079    0.0115    0.0060   -0.0009    0.0469   -0.0087   -0.0322
          39    0.0057    0.0181    0.0150   -0.0064   -0.0119   -0.0084   -0.0053   -0.0204
          40   -0.0076    0.0027   -0.0105    0.0234    0.0198    0.0004    0.0226    0.0058
          41    0.0024   -0.0073   -0.0120   -0.0058   -0.0015   -0.0466   -0.0087    0.0329
          42    0.0073   -0.0181    0.0146   -0.0066    0.0119   -0.0102    0.0049   -0.0197
          43   -0.0025    0.0091    0.0098    0.0046    0.0071    0.0352    0.0111   -0.0230
          44    0.0084   -0.0088    0.0134   -0.0364   -0.0086   -0.0033    0.0097   -0.0239
          45   -0.0141    0.0165   -0.0184    0.0565    0.0289    0.0023   -0.0490    0.0235
          46   -0.0015   -0.0153    0.0094    0.0046    0.0338    0.0359    0.0312   -0.0252
          47   -0.0087    0.0083   -0.0152    0.0261    0.0244    0.0078   -0.0515    0.0265
          48   -0.0141    0.0163   -0.0184    0.0557    0.0280    0.0025   -0.0472    0.0232
          49    0.0017    0.0090   -0.0097   -0.0046    0.0070   -0.0351    0.0112    0.0235
          50   -0.0074   -0.0084   -0.0127    0.0344   -0.0076    0.0033    0.0080    0.0230
          51   -0.0136   -0.0171   -0.0188    0.0578   -0.0292    0.0026    0.0493    0.0242
          52    0.0027   -0.0154   -0.0092   -0.0045    0.0337   -0.0359    0.0313    0.0250
          53    0.0090    0.0091    0.0158   -0.0280    0.0254   -0.0080   -0.0532   -0.0271
          54   -0.0131   -0.0163   -0.0178    0.0548   -0.0272    0.0023    0.0454    0.0222
          55    0.0060    0.0266    0.0217   -0.0392   -0.0059    0.0024    0.0030    0.0197
          56    0.0061   -0.0417   -0.0432    0.0152   -0.0125    0.0029   -0.0259   -0.0342
          57    0.0086    0.0028    0.0063   -0.0151    0.0119    0.0154    0.0035    0.0290
          58   -0.0054    0.0239    0.0111   -0.0430   -0.0126    0.0072   -0.0099    0.0103
          59    0.0014   -0.0095   -0.0127   -0.0046   -0.0123   -0.0045   -0.0091   -0.0142
          60    0.0005   -0.0428   -0.0469    0.0066    0.0034    0.0313   -0.0346   -0.0082
          61   -0.0081    0.0263   -0.0218    0.0391   -0.0059   -0.0025    0.0030   -0.0202
          62   -0.0042   -0.0411    0.0432   -0.0146   -0.0122   -0.0034   -0.0257    0.0335
          63    0.0090   -0.0041    0.0078   -0.0156   -0.0123    0.0154   -0.0044    0.0305
          64    0.0037    0.0239   -0.0112    0.0429   -0.0126   -0.0072   -0.0099   -0.0107
          65   -0.0010   -0.0108    0.0144    0.0044   -0.0122    0.0034   -0.0103    0.0144
          66   -0.0021    0.0420   -0.0467    0.0067   -0.0036    0.0315    0.0342   -0.0079
          67    0.0039   -0.0104   -0.0203   -0.0147   -0.0294   -0.0158   -0.0120   -0.0256
          68    0.0051   -0.0074   -0.0097   -0.0063   -0.0108   -0.0038   -0.0076   -0.0116
          69    0.0968   -0.0621   -0.0501   -0.0029   -0.0228   -0.0112   -0.0109   -0.0217
          70    0.0721   -0.0382   -0.0272   -0.0162   -0.0014    0.0138   -0.0102    0.0117
          71   -0.0686    0.0448    0.0291   -0.0184    0.0106    0.0176   -0.0015    0.0247
          72   -0.0721    0.0328    0.0040   -0.0145   -0.0304   -0.0215   -0.0050   -0.0230
          73   -0.0775    0.0462    0.0135   -0.0301   -0.0355   -0.0211   -0.0088   -0.0236
          74    0.0595   -0.0279   -0.0204   -0.0119   -0.0120   -0.0020   -0.0092   -0.0101
          75   -0.0736    0.0337    0.0051   -0.0146   -0.0286   -0.0196   -0.0050   -0.0207
          76    0.0793    0.0477   -0.0142    0.0300   -0.0355    0.0213   -0.0087    0.0234
          77   -0.0595   -0.0278    0.0207    0.0124   -0.0131    0.0027   -0.0094    0.0109
          78   -0.0778   -0.0360    0.0064   -0.0142    0.0282   -0.0197    0.0046   -0.0203
          79   -0.0745   -0.0393    0.0279    0.0162   -0.0015   -0.0139   -0.0103   -0.0118
[...]
 RED. MASS   2.6714        C  5 --  C 11           +7.1% ( 39.5%)    54.7%
 EFF. MASS  11.7971

 VIBRATION   71   71A       ATOM PAIR        ENERGY CONTRIBUTION    RADIAL
 FREQ.      2945.16        C  5 --  H 20          +51.9% ( 74.9%)    96.8%
 T-DIPOLE    0.0177        C  5 --  H 19          +44.7% ( 69.5%)    96.1%
 TRAVEL      0.1218        C  5 --  C  7           +1.1% ( 11.1%)     0.0%
 RED. MASS   0.5103        C  5 --  C 11           +1.1% ( 11.1%)     0.2%
 EFF. MASS   1.5436

 VIBRATION   72   72A       ATOM PAIR        ENERGY CONTRIBUTION    RADIAL
 FREQ.      2945.25        C  6 --  H 22          +51.9% ( 74.8%)    96.8%
 T-DIPOLE    0.0170        C  6 --  H 21          +44.7% ( 69.5%)    96.1%
 TRAVEL      0.1218        C  6 --  C  8           +1.1% ( 11.1%)     0.0%
 RED. MASS   0.5102        C  6 --  C 12           +1.1% ( 11.1%)     0.2%
 EFF. MASS   1.5436

 VIBRATION   73   73A       ATOM PAIR        ENERGY CONTRIBUTION    RADIAL
 FREQ.      2947.26        C  2 --  H 14          +51.7% ( 73.5%)   100.0%
 T-DIPOLE    0.0685        C  1 --  H 13          +43.8% ( 67.6%)   100.0%
 TRAVEL      0.1261        C  1 --  C  2           +1.0% ( 10.2%)     0.1%
 RED. MASS   0.4657        C  2 --  C 10           +0.6% (  7.9%)    14.1%
 EFF. MASS   1.4395

 VIBRATION   74   74A       ATOM PAIR        ENERGY CONTRIBUTION    RADIAL
 FREQ.      2948.25        C  1 --  H 13          +50.8% ( 73.1%)   100.0%
 T-DIPOLE    0.0790        C  2 --  H 14          +42.9% ( 67.1%)   100.0%
 TRAVEL      0.1246        C  1 --  C  2           +1.2% ( 11.1%)    99.6%
 RED. MASS   0.4537        C  1 --  C  4           +0.6% (  8.0%)    12.7%
 EFF. MASS   1.4726

 VIBRATION   75   75A       ATOM PAIR        ENERGY CONTRIBUTION    RADIAL
 FREQ.      3024.50        C  5 --  H 19          +47.7% ( 68.2%)    98.1%
 T-DIPOLE    0.0468        C  5 --  H 20          +41.8% ( 63.9%)    97.3%
 TRAVEL      0.1313        C  9 --  H 30           +2.3% ( 15.1%)    99.9%
 RED. MASS   0.4045        C  6 --  H 21           +2.2% ( 14.7%)    98.0%
 EFF. MASS   1.2924

 VIBRATION   76   76A       ATOM PAIR        ENERGY CONTRIBUTION    RADIAL
 FREQ.      3024.61        C  6 --  H 21          +47.9% ( 68.3%)    98.1%
 T-DIPOLE    0.0504        C  6 --  H 22          +42.0% ( 64.0%)    97.3%
 TRAVEL      0.1314        C  5 --  H 19           +2.4% ( 15.3%)    98.1%
 RED. MASS   0.4068        C  5 --  H 20           +2.1% ( 14.3%)    97.3%
 EFF. MASS   1.2907

 VIBRATION   77   77A       ATOM PAIR        ENERGY CONTRIBUTION    RADIAL
 FREQ.      3029.31        C  9 --  H 30          +47.7% ( 69.9%)   100.0%
 T-DIPOLE    0.2390        C 10 --  H 32          +44.6% ( 67.6%)   100.0%
 TRAVEL      0.1224        C 11 --  H 29           +1.4% ( 11.8%)    99.5%
 RED. MASS   0.4173        C 12 --  H 31           +1.3% ( 11.4%)    99.5%
 EFF. MASS   1.4846

 VIBRATION   78   78A       ATOM PAIR        ENERGY CONTRIBUTION    RADIAL
 FREQ.      3031.30        C 10 --  H 32          +47.4% ( 69.6%)   100.0%
 T-DIPOLE    0.3341        C  9 --  H 30          +44.2% ( 67.3%)   100.0%
 TRAVEL      0.1227        C 12 --  H 31           +2.5% ( 16.1%)    99.8%
 RED. MASS   0.4117        C 11 --  H 29           +2.4% ( 15.8%)    99.8%
 EFF. MASS   1.4780

 VIBRATION   79   79A       ATOM PAIR        ENERGY CONTRIBUTION    RADIAL
 FREQ.      3035.98        C 11 --  H 29          +69.1% ( 84.3%)   100.0%
 T-DIPOLE    0.2002        C 12 --  H 31          +22.5% ( 48.1%)   100.0%
 TRAVEL      0.1206        C  9 --  H 30           +1.7% ( 13.2%)    99.1%
 RED. MASS   0.5219        C  5 --  H 19           +1.4% ( 12.0%)    99.4%
 EFF. MASS   1.5276

 VIBRATION   80   80A       ATOM PAIR        ENERGY CONTRIBUTION    RADIAL
 FREQ.      3036.07        C 12 --  H 31          +68.4% ( 83.9%)   100.0%
 T-DIPOLE    0.2241        C 11 --  H 29          +21.8% ( 47.4%)   100.0%
 TRAVEL      0.1202        C 10 --  H 32           +2.7% ( 16.7%)    99.3%
 RED. MASS   0.5108        C  6 --  H 21           +1.5% ( 12.2%)    99.4%
 EFF. MASS   1.5369

 VIBRATION   81   81A       ATOM PAIR        ENERGY CONTRIBUTION    RADIAL
 FREQ.      3038.23        C  4 --  H 18          +29.4% ( 56.5%)    97.8%
 T-DIPOLE    0.0365        C  3 --  H 16          +28.4% ( 55.5%)    97.8%
 TRAVEL      0.1201        C  4 --  H 17          +19.8% ( 46.3%)    95.5%
 RED. MASS   0.2684        C  3 --  H 15          +19.1% ( 45.5%)    95.5%
 EFF. MASS   1.5382

 VIBRATION   82   82A       ATOM PAIR        ENERGY CONTRIBUTION    RADIAL
 FREQ.      3040.98        C  3 --  H 16          +28.9% ( 55.9%)    97.9%
 T-DIPOLE    0.1089        C  4 --  H 18          +27.9% ( 54.9%)    97.9%
 TRAVEL      0.1198        C  3 --  H 15          +19.1% ( 45.5%)    95.4%
 RED. MASS   0.2564        C  4 --  H 17          +18.5% ( 44.7%)    95.4%
 EFF. MASS   1.5451

 VIBRATION   83   83A       ATOM PAIR        ENERGY CONTRIBUTION    RADIAL
 FREQ.      3081.31        C  8 --  H 26          +64.3% ( 82.7%)    98.7%
 T-DIPOLE    0.0086        C  8 --  H 28          +27.8% ( 54.4%)    91.9%
 TRAVEL      0.1207        C  8 --  H 27           +6.7% ( 26.6%)    63.4%
 RED. MASS   0.5224        C  6 --  C  8           +1.0% ( 10.2%)     0.0%
 EFF. MASS   1.5011

 VIBRATION   84   84A       ATOM PAIR        ENERGY CONTRIBUTION    RADIAL
 FREQ.      3081.42        C  7 --  H 25          +64.4% ( 82.8%)    98.7%
 T-DIPOLE    0.0087        C  7 --  H 23          +27.3% ( 53.9%)    91.7%
 TRAVEL      0.1207        C  7 --  H 24           +7.0% ( 27.2%)    64.7%
 RED. MASS   0.5224        C  5 --  C  7           +1.0% ( 10.2%)     0.0%
 EFF. MASS   1.5011

 VIBRATION   85   85A       ATOM PAIR        ENERGY CONTRIBUTION    RADIAL
 FREQ.      3086.05        C  8 --  H 27          +57.9% ( 78.5%)    98.2%
 T-DIPOLE    0.0153        C  8 --  H 28          +36.9% ( 62.7%)    94.7%
 TRAVEL      0.1205        C  8 --  H 26           +3.6% ( 19.6%)    43.0%
 RED. MASS   0.5006        C  6 --  C  8           +1.0% ( 10.3%)     0.1%
 EFF. MASS   1.5040

 VIBRATION   86   86A       ATOM PAIR        ENERGY CONTRIBUTION    RADIAL
 FREQ.      3086.10        C  7 --  H 24          +57.6% ( 78.3%)    98.2%
 T-DIPOLE    0.0139        C  7 --  H 23          +37.4% ( 63.1%)    94.9%
 TRAVEL      0.1205        C  7 --  H 25           +3.4% ( 19.0%)    41.0%
 RED. MASS   0.5011        C  5 --  C  7           +1.0% ( 10.3%)     0.1%
 EFF. MASS   1.5040

 VIBRATION   87   87A       ATOM PAIR        ENERGY CONTRIBUTION    RADIAL
 FREQ.      3103.21        C  4 --  H 17          +30.2% ( 54.5%)    98.4%
 T-DIPOLE    0.1136        C  3 --  H 15          +29.3% ( 53.7%)    98.4%
 TRAVEL      0.1312        C  4 --  H 18          +19.6% ( 43.9%)    95.5%
 RED. MASS   0.2513        C  3 --  H 16          +19.0% ( 43.3%)    95.5%
 EFF. MASS   1.2627

 VIBRATION   88   88A       ATOM PAIR        ENERGY CONTRIBUTION    RADIAL
 FREQ.      3106.01        C  3 --  H 15          +30.1% ( 54.5%)    98.2%
 T-DIPOLE    0.0072        C  4 --  H 17          +29.3% ( 53.7%)    98.2%
 TRAVEL      0.1290        C  3 --  H 16          +19.4% ( 43.8%)    95.1%
 RED. MASS   0.2518        C  4 --  H 18          +18.9% ( 43.2%)    95.1%
 EFF. MASS   1.3052

 VIBRATION   89   89A       ATOM PAIR        ENERGY CONTRIBUTION    RADIAL
 FREQ.      3183.13        C  8 --  H 28          +34.4% ( 56.5%)    97.3%
 T-DIPOLE    0.0245        C  8 --  H 27          +34.4% ( 56.4%)    97.3%
 TRAVEL      0.1366        C  8 --  H 26          +30.9% ( 53.4%)    96.7%
 RED. MASS   0.3277        C  6 --  C  8           +0.3% (  5.1%)    99.8%
 EFF. MASS   1.1361

 VIBRATION   90   90A       ATOM PAIR        ENERGY CONTRIBUTION    RADIAL
 FREQ.      3183.22        C  7 --  H 23          +34.5% ( 56.5%)    97.3%
 T-DIPOLE    0.0242        C  7 --  H 24          +34.3% ( 56.4%)    97.3%
 TRAVEL      0.1365        C  7 --  H 25          +30.9% ( 53.5%)    96.7%
 RED. MASS   0.3276        C  5 --  C  7           +0.3% (  5.1%)    99.8%
 EFF. MASS   1.1361

 SYMMETRY NUMBER FOR POINT-GROUP C1  =  1


          SYSTEM IS A GROUND STATE


    NULL



          MOLECULE IS NOT LINEAR

          THERE ARE 90 GENUINE VIBRATIONS IN THIS SYSTEM
          THIS THERMODYNAMICS CALCULATION IS LIMITED TO
          MOLECULES WHICH HAVE NO INTERNAL ROTATIONS




                    CALCULATED THERMODYNAMIC PROPERTIES
                                          *
   TEMP. (K)   PARTITION FUNCTION   H.O.F.    ENTHALPY  HEAT CAPACITY ENTROPY
                                   KCAL/MOL   CAL/MOLE    CAL/K/MOL  CAL/K/MOL


 298.00  VIB.     0.5563D+06                  7146.4501    45.5867    50.2702
         ROT.     0.2205D+07                   888.2813     2.9808    32.0067
         INT.     0.1227D+13                  8034.7314    48.5675    82.2769
         TRA.     0.2036D+28                  1480.4688     4.9680    41.1956
         TOT.                        3.092    9515.2002    53.5355   123.4725

 200.00  VIB.     0.9397D+04                  3448.0792    30.5456    35.4198
         ROT.     0.1213D+07                   596.1620     2.9808    30.8180
         INT.     0.1139D+11                  4044.2412    33.5264    66.2378
         TRA.     0.1119D+28                   993.6033     4.9680    39.2145
         TOT.                       -1.386    5037.8444    38.4944   105.4523

 210.00  VIB.     0.1447D+05                  3760.1909    31.8847    36.9423
         ROT.     0.1305D+07                   625.9700     2.9808    30.9635
         INT.     0.1887D+11                  4386.1610    34.8655    67.9058
         TRA.     0.1204D+28                  1043.2834     4.9680    39.4569
         TOT.                       -0.994    5429.4444    39.8335   107.3627

 220.00  VIB.     0.2217D+05                  4085.9348    33.2723    38.4574
         ROT.     0.1399D+07                   655.7781     2.9808    31.1021
         INT.     0.3101D+11                  4741.7130    36.2531    69.5595
         TRA.     0.1291D+28                  1092.9636     4.9680    39.6880
         TOT.                       -0.589    5834.6765    41.2211   109.2476

 230.00  VIB.     0.3384D+05                  4425.8018    34.7093    39.9679
         ROT.     0.1495D+07                   685.5862     2.9808    31.2347
         INT.     0.5060D+11                  5111.3880    37.6901    71.2026
         TRA.     0.1380D+28                  1142.6437     4.9680    39.9088
         TOT.                       -0.170    6254.0317    42.6581   111.1114

 240.00  VIB.     0.5146D+05                  4780.2810    36.1945    41.4764
         ROT.     0.1594D+07                   715.3943     2.9808    31.3615
         INT.     0.8203D+11                  5495.6753    39.1753    72.8379
         TRA.     0.1471D+28                  1192.3239     4.9680    40.1203
         TOT.                        0.264    6687.9992    44.1433   112.9581

 250.00  VIB.     0.7802D+05                  5149.8446    37.7257    42.9848
         ROT.     0.1695D+07                   745.2024     2.9808    31.4832
         INT.     0.1322D+12                  5895.0471    40.7065    74.4680
         TRA.     0.1564D+28                  1242.0041     4.9680    40.3231
         TOT.                        0.713    7137.0511    45.6745   114.7911

 260.00  VIB.     0.1180D+06                  5534.9358    39.2993    44.4949
         ROT.     0.1797D+07                   775.0105     2.9808    31.6001
         INT.     0.2120D+12                  6309.9463    42.2802    76.0950
         TRA.     0.1659D+28                  1291.6842     4.9680    40.5179
         TOT.                        1.178    7601.6306    47.2482   116.6130

 270.00  VIB.     0.1779D+06                  5935.9591    40.9113    46.0082
         ROT.     0.1902D+07                   804.8186     2.9808    31.7126
         INT.     0.3383D+12                  6740.7777    43.8921    77.7208
         TRA.     0.1756D+28                  1341.3644     4.9680    40.7054
         TOT.                        1.658    8082.1421    48.8601   118.4262

 280.00  VIB.     0.2677D+06                  6353.2738    42.5568    47.5257
         ROT.     0.2009D+07                   834.6267     2.9808    31.8210
         INT.     0.5377D+12                  7187.9006    45.5376    79.3467
         TRA.     0.1854D+28                  1391.0445     4.9680    40.8861
         TOT.                        2.155    8578.9451    50.5056   120.2328

 290.00  VIB.     0.4022D+06                  6787.1896    44.2307    49.0482
         ROT.     0.2117D+07                   864.4348     2.9808    31.9256
         INT.     0.8514D+12                  7651.6245    47.2115    80.9738
         TRA.     0.1954D+28                  1440.7247     4.9680    41.0604
         TOT.                        2.669    9092.3492    52.1795   122.0343

 300.00  VIB.     0.6032D+06                  7237.9643    45.9277    50.5762
         ROT.     0.2228D+07                   894.2429     2.9808    32.0267
         INT.     0.1344D+13                  8132.2073    48.9085    82.6029
         TRA.     0.2056D+28                  1490.4049     4.9680    41.2289
         TOT.                        3.199    9622.6121    53.8765   123.8318

 310.00  VIB.     0.9035D+06                  7705.8031    47.6426    52.1101
         ROT.     0.2340D+07                   924.0510     2.9808    32.1244
         INT.     0.2114D+13                  8629.8541    50.6234    84.2345
         TRA.     0.2160D+28                  1540.0850     4.9680    41.3918
         TOT.                        3.746   10169.9391    55.5914   125.6263

 320.00  VIB.     0.1352D+07                  8190.8593    49.3703    53.6500
         ROT.     0.2454D+07                   953.8591     2.9808    32.2190
         INT.     0.3318D+13                  9144.7184    52.3512    85.8690
         TRA.     0.2265D+28                  1589.7652     4.9680    41.5495
         TOT.                        4.311   10734.4836    57.3192   127.4185

 330.00  VIB.     0.2021D+07                  8693.2363    51.1060    55.1957
         ROT.     0.2570D+07                   983.6672     2.9808    32.3108
         INT.     0.5194D+13                  9676.9035    54.0868    87.5065
         TRA.     0.2372D+28                  1639.4454     4.9680    41.7024
         TOT.                        4.893   11316.3489    59.0548   129.2089

 340.00  VIB.     0.3019D+07                  9212.9901    52.8450    56.7472
         ROT.     0.2688D+07                  1013.4753     2.9808    32.3997
         INT.     0.8115D+13                 10226.4654    55.8258    89.1470
         TRA.     0.2481D+28                  1689.1255     4.9680    41.8507
         TOT.                        5.492   11915.5909    60.7938   130.9976

 350.00  VIB.     0.4508D+07                  9750.1323    54.5830    58.3041
         ROT.     0.2807D+07                  1043.2834     2.9808    32.4862
         INT.     0.1265D+14                 10793.4157    57.5638    90.7903
         TRA.     0.2591D+28                  1738.8057     4.9680    41.9947
         TOT.                        6.109   12532.2214    62.5318   132.7850

 360.00  VIB.     0.6727D+07                 10304.6340    56.3162    59.8661
         ROT.     0.2928D+07                  1073.0915     2.9808    32.5701
         INT.     0.1970D+14                 11377.7255    59.2970    92.4362
         TRA.     0.2703D+28                  1788.4859     4.9680    42.1347
         TOT.                        6.743   13166.2114    64.2651   134.5709

 370.00  VIB.     0.1003D+08                 10876.4292    58.0411    61.4326
         ROT.     0.3051D+07                  1102.8996     2.9808    32.6518
         INT.     0.3062D+14                 11979.3288    61.0220    94.0844
         TRA.     0.2817D+28                  1838.1660     4.9680    42.2708
         TOT.                        7.394   13817.4948    65.9900   136.3552

 380.00  VIB.     0.1497D+08                 11465.4187    59.7546    63.0033
         ROT.     0.3176D+07                  1132.7077     2.9808    32.7313
         INT.     0.4752D+14                 12598.1264    62.7354    95.7346
         TRA.     0.2932D+28                  1887.8462     4.9680    42.4033
         TOT.                        8.062   14485.9726    67.7034   138.1378

 390.00  VIB.     0.2231D+08                 12071.4740    61.4539    64.5774
         ROT.     0.3302D+07                  1162.5158     2.9808    32.8087
         INT.     0.7367D+14                 13233.9898    64.4347    97.3862
         TRA.     0.3048D+28                  1937.5263     4.9680    42.5323
         TOT.                        8.748   15171.5161    69.4027   139.9185

 400.00  VIB.     0.3327D+08                 12694.4407    63.1365    66.1546
         ROT.     0.3430D+07                  1192.3239     2.9808    32.8842
         INT.     0.1141D+15                 13886.7646    66.1173    99.0388
         TRA.     0.3166D+28                  1987.2065     4.9680    42.6581
         TOT.                        9.450   15873.9711    71.0854   141.6968

   *: NOTE: HEATS OF FORMATION ARE RELATIVE TO THE
            ELEMENTS IN THEIR STANDARD STATE AT 298K
              (=  Standard Enthalpy of Formation).

            Hvib:  Zero-point energy is not included.
                   frequencies of less than zero cm-1 are not included.
            Hrot = (3/2)RT
            Htra = (3/2)RT + pV = (5/2)RT

            Heat capacity is Cp, not Cv

           For more information, see: HTTP://OpenMOPAC.net/Manual/thermochemistry.html


           FORCE CONSTANT IN CARTESIAN COORDINATES (Millidynes/A)

    ATOM   CHEMICAL       X               Y               Z
   NUMBER   SYMBOL  FORCE CONSTANT  FORCE CONSTANT  FORCE CONSTANT

      1       C       10.044372        5.934931        9.277935
      2       C       10.043745        5.934962        9.278043
      3       C        5.899530        9.665969        8.662284
      4       C        5.899404        9.671350        8.658300
      5       C        8.573958        8.026127        8.821886
      6       C        8.574132        8.024722        8.824106
      7       C        8.312332        8.213913        8.324075
      8       C        8.312215        8.215280        8.323248
      9       C       15.573645        2.485739        9.349306
     10       C       15.573701        2.490252        9.348831
     11       C       15.463420        2.453261        9.261667
     12       C       15.462473        2.452980        9.262498
     13       H        1.989023        0.656478        3.613911
     14       H        1.988884        0.656265        3.612608
     15       H        0.666786        2.257599        3.718142
     16       H        0.682979        2.279471        3.672064
     17       H        0.666607        2.409474        3.566116
     18       H        0.682925        2.132647        3.818836
     19       H        1.962100        0.768235        3.670222
     20       H        1.429002        4.184239        0.666667
     21       H        1.962428        0.805543        3.632598
     22       H        1.431241        4.168110        0.680758
     23       H        1.496042        4.617517        0.672347
     24       H        2.354440        0.718947        3.719453
     25       H        2.157763        0.781542        3.845954
     26       H        2.157559        0.819933        3.807596
     27       H        2.355142        0.705126        3.732353
     28       H        1.498667        4.601050        0.686182
     29       H        1.710546        0.359640        4.143785
     30       H        1.706238        0.360643        4.123820
     31       H        1.710205        0.358812        4.144885
     32       H        1.705992        0.361620        4.123475



 TOTAL CPU TIME:            10.63 SECONDS

 == MOPAC DONE ==
