 *******************************************************************************
 ** Site#: 14399           For non-commercial use only        Version 13.159M **
 *******************************************************************************
 ** Cite this work as: MOPAC2012, James J. P. Stewart, Stewart Computational  **
 ** Chemistry, Version 13.159M web: HTTP://OpenMOPAC.net  Days remaining:   6 **
 *******************************************************************************
 **                                                                           **
 **                                MOPAC2012                                  **
 **                                                                           **
 *******************************************************************************

                            PM3 CALCULATION RESULTS


 *******************************************************************************
 *  CALCULATION DONE:                                Mon Jun  2 11:11:17 2014  *
 *  PM3      - The PM3 Hamiltonian to be used
 *  PRECISE  - CRITERIA TO BE INCREASED BY 100 TIMES
 *  NOSYM    - POINT-GROUP SYMMETRY SET TO C1
 *  T=       - A TIME OF 172800.0 SECONDS REQUESTED
 *  DUMP=N   - RESTART FILE WRITTEN EVERY  7200.000 SECONDS
 *******************************************************************************
pm3  precise nosym
 InChI=1S/C10H14/c1-3-6-9(2)10-7-4-5-8-10/h3-4,6-7,10H,2,5,8H2,1H3

   ATOM   CHEMICAL          X               Y               Z
  NUMBER   SYMBOL      (ANGSTROMS)     (ANGSTROMS)     (ANGSTROMS)
 
     1       C         -0.98340000  *  -0.99610000  *   0.00500000  *
     2       C         -1.62210000  *   0.07980000  *   0.89440000  *
     3       C         -2.32620000  *   1.05530000  *  -0.05160000  *
     4       C          2.78580000  *   1.69630000  *  -0.06790000  *
     5       C          0.44350000  *  -1.37340000  *   0.36520000  *
     6       C         -1.13410000  *  -0.46010000  *  -1.37670000  *
     7       C         -1.87740000  *   0.63480000  *  -1.40670000  *
     8       C          1.55370000  *   0.85000000  *  -0.04840000  *
     9       C          1.59850000  *  -0.43690000  *   0.30900000  *
    10       C          0.68650000  *  -2.62850000  *   0.76250000  *
    11       H         -1.65840000  *  -1.88630000  *   0.02750000  *
    12       H         -2.34240000  *  -0.36730000  *   1.61880000  *
    13       H         -0.87010000  *   0.62860000  *   1.50810000  *
    14       H         -2.02210000  *   2.10910000  *   0.14460000  *
    15       H         -3.43480000  *   0.96660000  *   0.01460000  *
    16       H          3.53080000  *   1.27880000  *  -0.78250000  *
    17       H          3.23680000  *   1.74690000  *   0.94910000  *
    18       H          2.53570000  *   2.73230000  *  -0.39030000  *
    19       H         -0.74240000  *  -0.94260000  *  -2.27040000  *
    20       H          0.62760000  *   1.33190000  *  -0.33340000  *
    21       H         -2.14410000  *   1.15350000  *  -2.32540000  *
    22       H          2.57530000  *  -0.83180000  *   0.58320000  *
    23       H         -0.09920000  *  -3.37480000  *   0.83530000  *
    24       H          1.68250000  *  -2.96620000  *   1.03580000  *
 


          CARTESIAN COORDINATES 

    NO.       ATOM         X         Y         Z

     1         C       -0.9834   -0.9961    0.0050
     2         C       -1.6221    0.0798    0.8944
     3         C       -2.3262    1.0553   -0.0516
     4         C        2.7858    1.6963   -0.0679
     5         C        0.4435   -1.3734    0.3652
     6         C       -1.1341   -0.4601   -1.3767
     7         C       -1.8774    0.6348   -1.4067
     8         C        1.5537    0.8500   -0.0484
     9         C        1.5985   -0.4369    0.3090
    10         C        0.6865   -2.6285    0.7625
    11         H       -1.6584   -1.8863    0.0275
    12         H       -2.3424   -0.3673    1.6188
    13         H       -0.8701    0.6286    1.5081
    14         H       -2.0221    2.1091    0.1446
    15         H       -3.4348    0.9666    0.0146
    16         H        3.5308    1.2788   -0.7825
    17         H        3.2368    1.7469    0.9491
    18         H        2.5357    2.7323   -0.3903
    19         H       -0.7424   -0.9426   -2.2704
    20         H        0.6276    1.3319   -0.3334
    21         H       -2.1441    1.1535   -2.3254
    22         H        2.5753   -0.8318    0.5832
    23         H       -0.0992   -3.3748    0.8353
    24         H        1.6825   -2.9662    1.0358

  H: (PM3): J. J. P. STEWART, J. COMP. CHEM. 10, 209 (1989).
  C: (PM3): J. J. P. STEWART, J. COMP. CHEM. 10, 209 (1989).

           Empirical Formula: C10 H14  =    24 atoms



      MOLECULAR POINT GROUP   :   C1  


      RHF CALCULATION, NO. OF DOUBLY OCCUPIED LEVELS =   27

      Geometry optimization using EF

          DIAGONAL MATRIX USED AS START HESSIAN

 CYCLE:     1 TIME:   0.013 TIME LEFT:  2.00D  GRAD.:    65.855 HEAT: 35.33549
 CYCLE:     2 TIME:   0.030 TIME LEFT:  2.00D  GRAD.:    58.856 HEAT: 34.39741
 CYCLE:     3 TIME:   0.010 TIME LEFT:  2.00D  GRAD.:    53.017 HEAT: 33.93789
 CYCLE:     4 TIME:   0.012 TIME LEFT:  2.00D  GRAD.:    43.903 HEAT: 33.51497
 CYCLE:     5 TIME:   0.010 TIME LEFT:  2.00D  GRAD.:    49.800 HEAT: 33.36484
 CYCLE:     6 TIME:   0.018 TIME LEFT:  2.00D  GRAD.:    22.093 HEAT: 32.83787
 CYCLE:     7 TIME:   0.019 TIME LEFT:  2.00D  GRAD.:    15.734 HEAT: 32.69385
 CYCLE:     8 TIME:   0.011 TIME LEFT:  2.00D  GRAD.:    15.565 HEAT: 32.59878
 CYCLE:     9 TIME:   0.009 TIME LEFT:  2.00D  GRAD.:    19.591 HEAT: 32.53455
 CYCLE:    10 TIME:   0.010 TIME LEFT:  2.00D  GRAD.:    12.312 HEAT: 32.42627
 CYCLE:    11 TIME:   0.020 TIME LEFT:  2.00D  GRAD.:    17.379 HEAT: 32.42533
 CYCLE:    12 TIME:   0.011 TIME LEFT:  2.00D  GRAD.:    14.303 HEAT: 32.39639
 CYCLE:    13 TIME:   0.009 TIME LEFT:  2.00D  GRAD.:    13.029 HEAT: 32.37271
 CYCLE:    14 TIME:   0.008 TIME LEFT:  2.00D  GRAD.:    13.594 HEAT: 32.36855
 CYCLE:    15 TIME:   0.009 TIME LEFT:  2.00D  GRAD.:    14.428 HEAT: 32.36077
 CYCLE:    16 TIME:   0.012 TIME LEFT:  2.00D  GRAD.:    10.087 HEAT: 32.32625
 CYCLE:    17 TIME:   0.015 TIME LEFT:  2.00D  GRAD.:     9.229 HEAT: 32.30117
 CYCLE:    18 TIME:   0.014 TIME LEFT:  2.00D  GRAD.:     7.316 HEAT: 32.29101
 CYCLE:    19 TIME:   0.008 TIME LEFT:  2.00D  GRAD.:     4.351 HEAT: 32.27852
 CYCLE:    20 TIME:   0.008 TIME LEFT:  2.00D  GRAD.:     5.240 HEAT: 32.26557
 CYCLE:    21 TIME:   0.011 TIME LEFT:  2.00D  GRAD.:     4.832 HEAT: 32.24405
 CYCLE:    22 TIME:   0.009 TIME LEFT:  2.00D  GRAD.:     3.322 HEAT: 32.21464
 CYCLE:    23 TIME:   0.012 TIME LEFT:  2.00D  GRAD.:     4.381 HEAT: 32.17253
 CYCLE:    24 TIME:   0.013 TIME LEFT:  2.00D  GRAD.:     6.037 HEAT: 32.13587
 CYCLE:    25 TIME:   0.008 TIME LEFT:  2.00D  GRAD.:     5.179 HEAT: 32.12457
 CYCLE:    26 TIME:   0.008 TIME LEFT:  2.00D  GRAD.:     3.519 HEAT: 32.11208
 CYCLE:    27 TIME:   0.008 TIME LEFT:  2.00D  GRAD.:     4.080 HEAT: 32.10089
 CYCLE:    28 TIME:   0.008 TIME LEFT:  2.00D  GRAD.:     4.522 HEAT: 32.08312
 CYCLE:    29 TIME:   0.008 TIME LEFT:  2.00D  GRAD.:     3.900 HEAT: 32.06187
 CYCLE:    30 TIME:   0.008 TIME LEFT:  2.00D  GRAD.:     3.895 HEAT: 32.05198
 CYCLE:    31 TIME:   0.008 TIME LEFT:  2.00D  GRAD.:     3.098 HEAT: 32.03792
 CYCLE:    32 TIME:   0.008 TIME LEFT:  2.00D  GRAD.:     5.210 HEAT: 31.99916
 CYCLE:    33 TIME:   0.008 TIME LEFT:  2.00D  GRAD.:     5.114 HEAT: 31.98113
 CYCLE:    34 TIME:   0.009 TIME LEFT:  2.00D  GRAD.:     2.976 HEAT: 31.96506
 CYCLE:    35 TIME:   0.008 TIME LEFT:  2.00D  GRAD.:     3.688 HEAT: 31.94906
 CYCLE:    36 TIME:   0.008 TIME LEFT:  2.00D  GRAD.:     3.512 HEAT: 31.93850
 CYCLE:    37 TIME:   0.008 TIME LEFT:  2.00D  GRAD.:     2.349 HEAT: 31.92924
 CYCLE:    38 TIME:   0.008 TIME LEFT:  2.00D  GRAD.:     1.946 HEAT: 31.91993
 CYCLE:    39 TIME:   0.009 TIME LEFT:  2.00D  GRAD.:     2.132 HEAT: 31.91334
 CYCLE:    40 TIME:   0.011 TIME LEFT:  2.00D  GRAD.:     2.192 HEAT: 31.90607
 CYCLE:    41 TIME:   0.008 TIME LEFT:  2.00D  GRAD.:     1.728 HEAT: 31.90022
 CYCLE:    42 TIME:   0.009 TIME LEFT:  2.00D  GRAD.:     2.084 HEAT: 31.89339
 CYCLE:    43 TIME:   0.008 TIME LEFT:  2.00D  GRAD.:     2.049 HEAT: 31.88754
 CYCLE:    44 TIME:   0.008 TIME LEFT:  2.00D  GRAD.:     1.837 HEAT: 31.88171
 CYCLE:    45 TIME:   0.008 TIME LEFT:  2.00D  GRAD.:     2.045 HEAT: 31.87462
 CYCLE:    46 TIME:   0.008 TIME LEFT:  2.00D  GRAD.:     2.530 HEAT: 31.86550
 CYCLE:    47 TIME:   0.008 TIME LEFT:  2.00D  GRAD.:     3.775 HEAT: 31.84885
 CYCLE:    48 TIME:   0.008 TIME LEFT:  2.00D  GRAD.:     4.664 HEAT: 31.81620
 CYCLE:    49 TIME:   0.008 TIME LEFT:  2.00D  GRAD.:     8.560 HEAT: 31.77378
 CYCLE:    50 TIME:   0.009 TIME LEFT:  2.00D  GRAD.:     9.570 HEAT: 31.69044
 CYCLE:    51 TIME:   0.008 TIME LEFT:  2.00D  GRAD.:     6.936 HEAT: 31.62388
 CYCLE:    52 TIME:   0.015 TIME LEFT:  2.00D  GRAD.:     9.252 HEAT: 31.53008
 CYCLE:    53 TIME:   0.008 TIME LEFT:  2.00D  GRAD.:     6.512 HEAT: 31.46107
 CYCLE:    54 TIME:   0.012 TIME LEFT:  2.00D  GRAD.:     7.322 HEAT: 31.39592
 CYCLE:    55 TIME:   0.009 TIME LEFT:  2.00D  GRAD.:     5.203 HEAT: 31.32827
 CYCLE:    56 TIME:   0.009 TIME LEFT:  2.00D  GRAD.:    12.693 HEAT: 31.30813
 CYCLE:    57 TIME:   0.008 TIME LEFT:  2.00D  GRAD.:     6.026 HEAT: 31.22937
 CYCLE:    58 TIME:   0.008 TIME LEFT:  2.00D  GRAD.:     4.692 HEAT: 31.18195
 CYCLE:    59 TIME:   0.009 TIME LEFT:  2.00D  GRAD.:     6.350 HEAT: 31.11575
 CYCLE:    60 TIME:   0.008 TIME LEFT:  2.00D  GRAD.:     4.142 HEAT: 31.09332
 CYCLE:    61 TIME:   0.008 TIME LEFT:  2.00D  GRAD.:     3.049 HEAT: 31.07527
 CYCLE:    62 TIME:   0.008 TIME LEFT:  2.00D  GRAD.:     2.064 HEAT: 31.05808
 CYCLE:    63 TIME:   0.008 TIME LEFT:  2.00D  GRAD.:     3.307 HEAT: 31.05361
 CYCLE:    64 TIME:   0.008 TIME LEFT:  2.00D  GRAD.:     1.941 HEAT: 31.04723
 CYCLE:    65 TIME:   0.008 TIME LEFT:  2.00D  GRAD.:     1.929 HEAT: 31.03880
 CYCLE:    66 TIME:   0.008 TIME LEFT:  2.00D  GRAD.:     2.102 HEAT: 31.03246
 CYCLE:    67 TIME:   0.008 TIME LEFT:  2.00D  GRAD.:     2.269 HEAT: 31.02449
 CYCLE:    68 TIME:   0.008 TIME LEFT:  2.00D  GRAD.:     2.398 HEAT: 31.01605
 CYCLE:    69 TIME:   0.008 TIME LEFT:  2.00D  GRAD.:     1.754 HEAT: 31.00834
 CYCLE:    70 TIME:   0.008 TIME LEFT:  2.00D  GRAD.:     1.518 HEAT: 31.00099
 CYCLE:    71 TIME:   0.008 TIME LEFT:  2.00D  GRAD.:     1.858 HEAT: 30.99670
 CYCLE:    72 TIME:   0.008 TIME LEFT:  2.00D  GRAD.:     1.346 HEAT: 30.99336
 CYCLE:    73 TIME:   0.008 TIME LEFT:  2.00D  GRAD.:     0.846 HEAT: 30.99123
 CYCLE:    74 TIME:   0.008 TIME LEFT:  2.00D  GRAD.:     0.673 HEAT: 30.99016
 CYCLE:    75 TIME:   0.008 TIME LEFT:  2.00D  GRAD.:     0.643 HEAT: 30.98952
 CYCLE:    76 TIME:   0.008 TIME LEFT:  2.00D  GRAD.:     0.778 HEAT: 30.98866
 CYCLE:    77 TIME:   0.008 TIME LEFT:  2.00D  GRAD.:     0.937 HEAT: 30.98754
 CYCLE:    78 TIME:   0.008 TIME LEFT:  2.00D  GRAD.:     1.023 HEAT: 30.98564
 CYCLE:    79 TIME:   0.009 TIME LEFT:  2.00D  GRAD.:     0.859 HEAT: 30.98423
 CYCLE:    80 TIME:   0.010 TIME LEFT:  2.00D  GRAD.:     1.324 HEAT: 30.98197
 CYCLE:    81 TIME:   0.008 TIME LEFT:  2.00D  GRAD.:     0.848 HEAT: 30.98113
 CYCLE:    82 TIME:   0.008 TIME LEFT:  2.00D  GRAD.:     0.749 HEAT: 30.97915
 CYCLE:    83 TIME:   0.008 TIME LEFT:  2.00D  GRAD.:     0.886 HEAT: 30.97796
 CYCLE:    84 TIME:   0.008 TIME LEFT:  2.00D  GRAD.:     0.902 HEAT: 30.97576
 CYCLE:    85 TIME:   0.008 TIME LEFT:  2.00D  GRAD.:     0.656 HEAT: 30.97507
 CYCLE:    86 TIME:   0.008 TIME LEFT:  2.00D  GRAD.:     0.732 HEAT: 30.97367
 CYCLE:    87 TIME:   0.008 TIME LEFT:  2.00D  GRAD.:     0.618 HEAT: 30.97305
 CYCLE:    88 TIME:   0.008 TIME LEFT:  2.00D  GRAD.:     0.825 HEAT: 30.97075
 CYCLE:    89 TIME:   0.008 TIME LEFT:  2.00D  GRAD.:     1.022 HEAT: 30.96926
 CYCLE:    90 TIME:   0.008 TIME LEFT:  2.00D  GRAD.:     1.026 HEAT: 30.96655
 CYCLE:    91 TIME:   0.008 TIME LEFT:  2.00D  GRAD.:     0.762 HEAT: 30.96509
 CYCLE:    92 TIME:   0.012 TIME LEFT:  2.00D  GRAD.:     0.769 HEAT: 30.96355
 CYCLE:    93 TIME:   0.008 TIME LEFT:  2.00D  GRAD.:     0.517 HEAT: 30.96311
 CYCLE:    94 TIME:   0.009 TIME LEFT:  2.00D  GRAD.:     0.595 HEAT: 30.96231
 CYCLE:    95 TIME:   0.008 TIME LEFT:  2.00D  GRAD.:     0.520 HEAT: 30.96198
 CYCLE:    96 TIME:   0.008 TIME LEFT:  2.00D  GRAD.:     0.345 HEAT: 30.96133
 CYCLE:    97 TIME:   0.008 TIME LEFT:  2.00D  GRAD.:     0.233 HEAT: 30.96116
 CYCLE:    98 TIME:   0.008 TIME LEFT:  2.00D  GRAD.:     0.188 HEAT: 30.96102
 CYCLE:    99 TIME:   0.008 TIME LEFT:  2.00D  GRAD.:     0.160 HEAT: 30.96092
 CYCLE:   100 TIME:   0.008 TIME LEFT:  2.00D  GRAD.:     0.137 HEAT: 30.96085
 CYCLE:   101 TIME:   0.008 TIME LEFT:  2.00D  GRAD.:     0.106 HEAT: 30.96081
 CYCLE:   102 TIME:   0.008 TIME LEFT:  2.00D  GRAD.:     0.075 HEAT: 30.96077
 CYCLE:   103 TIME:   0.008 TIME LEFT:  2.00D  GRAD.:     0.066 HEAT: 30.96075
 CYCLE:   104 TIME:   0.008 TIME LEFT:  2.00D  GRAD.:     0.052 HEAT: 30.96074
 CYCLE:   105 TIME:   0.008 TIME LEFT:  2.00D  GRAD.:     0.063 HEAT: 30.96074
 CYCLE:   106 TIME:   0.007 TIME LEFT:  2.00D  GRAD.:     0.037 HEAT: 30.96074

     RMS GRADIENT =  0.03722  IS LESS THAN CUTOFF =  0.05000



 -------------------------------------------------------------------------------
pm3  precise nosym
 InChI=1S/C10H14/c1-3-6-9(2)10-7-4-5-8-10/h3-4,6-7,10H,2,5,8H2,1H3



     GEOMETRY OPTIMISED USING EIGENVECTOR FOLLOWING (EF).     
     SCF FIELD WAS ACHIEVED                                   


                              PM3 CALCULATION
                                                       MOPAC2012 (Version: 13.159M)
                                                       Mon Jun  2 11:11:18 2014
                                                       No. of days left =   6




          FINAL HEAT OF FORMATION =         30.96074 KCAL/MOL =     129.53972 KJ/MOL


          TOTAL ENERGY            =      -1399.71907 EV
          ELECTRONIC ENERGY       =      -7854.53648 EV  POINT GROUP:     C1  
          CORE-CORE REPULSION     =       6454.81740 EV
          COSMO AREA              =        190.36 SQUARE ANGSTROMS
          COSMO VOLUME            =        197.55 CUBIC ANGSTROMS

          GRADIENT NORM           =          0.03722
          IONIZATION POTENTIAL    =          9.289330 EV
          HOMO LUMO ENERGIES (EV) =         -9.289  0.507
          NO. OF FILLED LEVELS    =         27
          MOLECULAR WEIGHT        =        134.221

          MOLECULAR DIMENSIONS (Angstroms)

            Atom       Atom       Distance
            H    18    H    23     6.56890
            H    24    H    15     6.17221
            H    12    H    19     4.00180


          SCF CALCULATIONS        =        115
          COMPUTATION TIME        =          0.996 SECONDS




   ATOM   CHEMICAL          X               Y               Z
  NUMBER   SYMBOL      (ANGSTROMS)     (ANGSTROMS)     (ANGSTROMS)
 
     1       C         -1.00562080  *  -1.01093061  *   0.08431986  *
     2       C         -1.55255452  *   0.15882365  *   0.93171818  *
     3       C         -2.17394227  *   1.15010709  *  -0.06374952  *
     4       C          2.64442696  *   1.71456345  *  -0.05564327  *
     5       C          0.41423837  *  -1.38450297  *   0.40053070  *
     6       C         -1.18157429  *  -0.55765140  *  -1.33981649  *
     7       C         -1.83280077  *   0.60852272  *  -1.41494760  *
     8       C          1.58658957  *   0.69725059  *  -0.23744197  *
     9       C          1.43201599  *  -0.34521721  *   0.58293115  *
    10       C          0.76382527  *  -2.66846856  *   0.52810107  *
    11       H         -1.65112817  *  -1.91169202  *   0.23400060  *
    12       H         -2.29309493  *  -0.19577308  *   1.66963502  *
    13       H         -0.74508055  *   0.63759456  *   1.51679700  *
    14       H         -1.77479233  *   2.17303659  *   0.06339070  *
    15       H         -3.26998289  *   1.23002084  *   0.05787002  *
    16       H          3.29944643  *   1.74816236  *  -0.93670993  *
    17       H          3.27764384  *   1.52545059  *   0.82151585  *
    18       H          2.20077861  *   2.71222118  *   0.06423109  *
    19       H         -0.81279488  *  -1.15724000  *  -2.17156725  *
    20       H          0.91125811  *   0.83973821  *  -1.09322749  *
    21       H         -2.10910411  *   1.14081103  *  -2.32465932  *
    22       H          2.10532230  *  -0.49356132  *   1.43805805  *
    23       H          0.06204609  *  -3.48920503  *   0.40849771  *
    24       H          1.77892321  *  -2.97821560  *   0.75945580  *

           Empirical Formula: C10 H14  =    24 atoms



      MOLECULAR POINT GROUP   :   C1  


                  EIGENVALUES  
 -41.11265 -35.71092 -32.56976 -28.05741 -26.79295 -25.97802 -20.62874 -20.16997
 -18.77229 -18.36972 -17.52815 -16.29827 -15.82749 -15.19279 -14.38054 -14.13123
 -13.88780 -13.53056 -12.95695 -12.81246 -12.64876 -12.40297 -12.17834 -12.04764
 -10.71825  -9.60604  -9.28933   0.50688   1.08380   1.71641   3.20006   3.36756
   3.51638   3.74773   3.78270   3.86617   3.90976   3.98937   4.02835   4.17154
   4.21649   4.32266   4.33282   4.41651   4.46660   4.50916   4.97881   5.05906
   5.31865   5.53682   5.63027   5.91183   6.07769   6.14066


              NET ATOMIC CHARGES AND DIPOLE CONTRIBUTIONS

  ATOM NO.   TYPE          CHARGE      No. of ELECS.   s-Pop       p-Pop       
    1          C          -0.002903        4.0029     1.16080     2.84211
    2          C          -0.103629        4.1036     1.16925     2.93438
    3          C          -0.065591        4.0656     1.15417     2.91143
    4          C          -0.075060        4.0751     1.12530     2.94976
    5          C          -0.064944        4.0649     1.18570     2.87925
    6          C          -0.149578        4.1496     1.20440     2.94518
    7          C          -0.154853        4.1549     1.20283     2.95203
    8          C          -0.138606        4.1386     1.19601     2.94259
    9          C          -0.116148        4.1161     1.18006     2.93609
   10          C          -0.166228        4.1662     1.18453     2.98170
   11          H           0.070887        0.9291     0.92911
   12          H           0.051800        0.9482     0.94820
   13          H           0.064143        0.9359     0.93586
   14          H           0.055807        0.9442     0.94419
   15          H           0.055821        0.9442     0.94418
   16          H           0.045020        0.9550     0.95498
   17          H           0.040658        0.9593     0.95934
   18          H           0.044411        0.9556     0.95559
   19          H           0.115351        0.8846     0.88465
   20          H           0.112420        0.8876     0.88758
   21          H           0.111073        0.8889     0.88893
   22          H           0.102955        0.8970     0.89704
   23          H           0.083376        0.9166     0.91662
   24          H           0.083818        0.9162     0.91618
 DIPOLE           X         Y         Z       TOTAL
 POINT-CHG.    -0.057     0.438    -0.010     0.441
 HYBRID         0.031    -0.035    -0.046     0.066
 SUM           -0.026     0.402    -0.057     0.407


          ATOMIC ORBITAL ELECTRON POPULATIONS

    Atom      s        px        py        pz   
    1  C   1.16080   0.92834   0.98101   0.93276
    2  C   1.16925   1.00514   0.95973   0.96951
    3  C   1.15417   0.99787   0.98051   0.93304
    4  C   1.12530   0.96871   0.97428   1.00678
    5  C   1.18570   0.94225   0.94759   0.98940
    6  C   1.20440   1.00081   0.97378   0.97059
    7  C   1.20283   1.00011   0.97366   0.97827
    8  C   1.19601   0.98717   0.96012   0.99531
    9  C   1.18006   0.98162   0.95847   0.99601
   10  C   1.18453   1.00958   0.95269   1.01942
   11  H   0.92911
   12  H   0.94820
   13  H   0.93586
   14  H   0.94419
   15  H   0.94418
   16  H   0.95498
   17  H   0.95934
   18  H   0.95559
   19  H   0.88465
   20  H   0.88758
   21  H   0.88893
   22  H   0.89704
   23  H   0.91662
   24  H   0.91618
 *******************************************************************************
 ** Site#: 14399           For non-commercial use only        Version 13.159M **
 *******************************************************************************
 ** Cite this work as: MOPAC2012, James J. P. Stewart, Stewart Computational  **
 ** Chemistry, Version 13.159M web: HTTP://OpenMOPAC.net  Days remaining:   6 **
 *******************************************************************************
 **                                                                           **
 **                                MOPAC2012                                  **
 **                                                                           **
 *******************************************************************************

                            PM3 CALCULATION RESULTS


 *******************************************************************************
 *  CALCULATION DONE:                                Mon Jun  2 11:11:18 2014  *
 *  PM3      - The PM3 Hamiltonian to be used
 *  OLDGEO   - PREVIOUS GEOMETRY TO BE USED
 *  PRECISE  - CRITERIA TO BE INCREASED BY 100 TIMES
 *  NOSYM    - POINT-GROUP SYMMETRY SET TO C1
 *  T=       - A TIME OF 172800.0 SECONDS REQUESTED
 *  DUMP=N   - RESTART FILE WRITTEN EVERY  7200.000 SECONDS
 *  THERMO   - THERMODYNAMIC QUANTITIES TO BE CALCULATED
 *******************************************************************************
oldgeo thermo nosym precise  pm3

   ATOM   CHEMICAL          X               Y               Z
  NUMBER   SYMBOL      (ANGSTROMS)     (ANGSTROMS)     (ANGSTROMS)
 
     1       C         -1.00562080  *  -1.01093061  *   0.08431986  *
     2       C         -1.55255452  *   0.15882365  *   0.93171818  *
     3       C         -2.17394227  *   1.15010709  *  -0.06374952  *
     4       C          2.64442696  *   1.71456345  *  -0.05564327  *
     5       C          0.41423837  *  -1.38450297  *   0.40053070  *
     6       C         -1.18157429  *  -0.55765140  *  -1.33981649  *
     7       C         -1.83280077  *   0.60852272  *  -1.41494760  *
     8       C          1.58658957  *   0.69725059  *  -0.23744197  *
     9       C          1.43201599  *  -0.34521721  *   0.58293115  *
    10       C          0.76382527  *  -2.66846856  *   0.52810107  *
    11       H         -1.65112817  *  -1.91169202  *   0.23400060  *
    12       H         -2.29309493  *  -0.19577308  *   1.66963502  *
    13       H         -0.74508055  *   0.63759456  *   1.51679700  *
    14       H         -1.77479233  *   2.17303659  *   0.06339070  *
    15       H         -3.26998289  *   1.23002084  *   0.05787002  *
    16       H          3.29944643  *   1.74816236  *  -0.93670993  *
    17       H          3.27764384  *   1.52545059  *   0.82151585  *
    18       H          2.20077861  *   2.71222118  *   0.06423109  *
    19       H         -0.81279488  *  -1.15724000  *  -2.17156725  *
    20       H          0.91125811  *   0.83973821  *  -1.09322749  *
    21       H         -2.10910411  *   1.14081103  *  -2.32465932  *
    22       H          2.10532230  *  -0.49356132  *   1.43805805  *
    23       H          0.06204609  *  -3.48920503  *   0.40849771  *
    24       H          1.77892321  *  -2.97821560  *   0.75945580  *
 


          CARTESIAN COORDINATES 

    NO.       ATOM         X         Y         Z

     1         C       -1.0056   -1.0109    0.0843
     2         C       -1.5526    0.1588    0.9317
     3         C       -2.1739    1.1501   -0.0637
     4         C        2.6444    1.7146   -0.0556
     5         C        0.4142   -1.3845    0.4005
     6         C       -1.1816   -0.5577   -1.3398
     7         C       -1.8328    0.6085   -1.4149
     8         C        1.5866    0.6973   -0.2374
     9         C        1.4320   -0.3452    0.5829
    10         C        0.7638   -2.6685    0.5281
    11         H       -1.6511   -1.9117    0.2340
    12         H       -2.2931   -0.1958    1.6696
    13         H       -0.7451    0.6376    1.5168
    14         H       -1.7748    2.1730    0.0634
    15         H       -3.2700    1.2300    0.0579
    16         H        3.2994    1.7482   -0.9367
    17         H        3.2776    1.5255    0.8215
    18         H        2.2008    2.7122    0.0642
    19         H       -0.8128   -1.1572   -2.1716
    20         H        0.9113    0.8397   -1.0932
    21         H       -2.1091    1.1408   -2.3247
    22         H        2.1053   -0.4936    1.4381
    23         H        0.0620   -3.4892    0.4085
    24         H        1.7789   -2.9782    0.7595

  H: (PM3): J. J. P. STEWART, J. COMP. CHEM. 10, 209 (1989).
  C: (PM3): J. J. P. STEWART, J. COMP. CHEM. 10, 209 (1989).

           Empirical Formula: C10 H14  =    24 atoms



      MOLECULAR POINT GROUP   :   C1  


      RHF CALCULATION, NO. OF DOUBLY OCCUPIED LEVELS =   27



          HEAT OF FORMATION =      30.960737 KCALS/MOLE


          INTERNAL COORDINATE DERIVATIVES

   NUMBER  ATOM       BOND         ANGLE      DIHEDRAL

     1       C     -0.004392    -0.000718     0.002309
     2       C     -0.005866     0.000933    -0.001411
     3       C     -0.002741     0.002033     0.000688
     4       C      0.006933    -0.001544     0.005299
     5       C     -0.000481    -0.000794     0.000030
     6       C     -0.001834    -0.000763     0.003432
     7       C     -0.002464    -0.001799    -0.001375
     8       C      0.006478    -0.002371    -0.004709
     9       C     -0.008750    -0.006439     0.003396
    10       C     -0.004299    -0.004684    -0.001841
    11       H     -0.001095    -0.003288    -0.001512
    12       H      0.001716    -0.000895    -0.007467
    13       H     -0.000719     0.000551    -0.004388
    14       H     -0.004732     0.000139    -0.007403
    15       H      0.005974     0.003146    -0.008116
    16       H     -0.000257    -0.001364    -0.006564
    17       H      0.007186     0.004617     0.004827
    18       H      0.002322    -0.000241    -0.002543
    19       H      0.001363     0.005936     0.014278
    20       H      0.010862     0.009080     0.010392
    21       H     -0.003409    -0.001526    -0.000489
    22       H     -0.002438    -0.001795     0.002854
    23       H      0.001818     0.004376     0.004145
    24       H     -0.001176    -0.002589    -0.003832


          GRADIENT NORM =   0.03877


          TIME FOR SCF CALCULATION =    0.01

          TIME FOR DERIVATIVES     =    0.01

          MOLECULAR WEIGHT =  134.22



          ROTATIONAL CONSTANTS IN CM(-1)

          A =    0.05395695   B =    0.03802244   C =    0.02740384



           PRINCIPAL MOMENTS OF INERTIA IN UNITS OF 10**(-40)*GRAM-CM**2

          A =      518.7983   B =      736.2172   C =     1021.4908


          ORIENTATION OF MOLECULE IN FORCE CALCULATION

    NO.       ATOM         X         Y         Z

     1          C      -0.2619   -0.2113    1.2423
     2          C       1.2826   -0.2113    1.2423
     3          C       1.7072    1.2650    1.2423
     4          C       0.4329   -0.0231   -3.2579
     5          C      -0.8742   -1.0969    0.1952
     6          C      -0.6377    1.2355    1.0687
     7          C       0.4349    2.0348    1.0874
     8          C      -0.0627    0.0042   -1.8649
     9          C      -0.3474   -1.1020   -1.1729
    10          C      -1.9004   -1.8971    0.5013
    11          H      -0.6334   -0.5385    2.2450
    12          H       1.6811   -0.7499    2.1197
    13          H       1.6803   -0.7386    0.3550
    14          H       2.4104    1.4958    0.4213
    15          H       2.2226    1.5497    2.1782
    16          H      -0.2570    0.5163   -3.9209
    17          H       0.5467   -1.0408   -3.6547
    18          H       1.4114    0.4713   -3.3268
    19          H      -1.6787    1.5380    0.9588
    20          H      -0.1852    0.9965   -1.4075
    21          H       0.4368    3.1214    1.0066
    22          H      -0.2290   -2.0957   -1.6258
    23          H      -2.3391   -1.9459    1.4941
    24          H      -2.3675   -2.5540   -0.2268


    FIRST DERIVATIVES WILL BE USED IN THE CALCULATION OF SECOND DERIVATIVES

          ESTIMATED TIME TO COMPLETE CALCULATION =        3.29 SECONDS

    FOR POINT-GROUP C1   THERE ARE   1 UNIQUE SYMMETRY FUNCTIONS.

 STEP:   1 TIME =     0.04 SECS, INTEGRAL =      0.04 TIME LEFT: 172799.95
 STEP:   2 TIME =     0.04 SECS, INTEGRAL =      0.07 TIME LEFT: 172799.92
 STEP:   3 TIME =     0.04 SECS, INTEGRAL =      0.11 TIME LEFT: 172799.88
 STEP:   4 TIME =     0.04 SECS, INTEGRAL =      0.14 TIME LEFT: 172799.85
 STEP:   5 TIME =     0.04 SECS, INTEGRAL =      0.18 TIME LEFT: 172799.80
 STEP:   6 TIME =     0.03 SECS, INTEGRAL =      0.22 TIME LEFT: 172799.77
 STEP:   7 TIME =     0.04 SECS, INTEGRAL =      0.25 TIME LEFT: 172799.73
 STEP:   8 TIME =     0.04 SECS, INTEGRAL =      0.29 TIME LEFT: 172799.70
 STEP:   9 TIME =     0.03 SECS, INTEGRAL =      0.33 TIME LEFT: 172799.66
 STEP:  10 TIME =     0.04 SECS, INTEGRAL =      0.36 TIME LEFT: 172799.63
 STEP:  11 TIME =     0.03 SECS, INTEGRAL =      0.40 TIME LEFT: 172799.59
 STEP:  12 TIME =     0.04 SECS, INTEGRAL =      0.43 TIME LEFT: 172799.56
 STEP:  13 TIME =     0.04 SECS, INTEGRAL =      0.47 TIME LEFT: 172799.52
 STEP:  14 TIME =     0.04 SECS, INTEGRAL =      0.50 TIME LEFT: 172799.49
 STEP:  15 TIME =     0.04 SECS, INTEGRAL =      0.54 TIME LEFT: 172799.45
 STEP:  16 TIME =     0.04 SECS, INTEGRAL =      0.57 TIME LEFT: 172799.42
 STEP:  17 TIME =     0.04 SECS, INTEGRAL =      0.61 TIME LEFT: 172799.38
 STEP:  18 TIME =     0.04 SECS, INTEGRAL =      0.65 TIME LEFT: 172799.34
 STEP:  19 TIME =     0.04 SECS, INTEGRAL =      0.68 TIME LEFT: 172799.31
 STEP:  20 TIME =     0.03 SECS, INTEGRAL =      0.72 TIME LEFT: 172799.27
 STEP:  21 TIME =     0.04 SECS, INTEGRAL =      0.76 TIME LEFT: 172799.23
 STEP:  22 TIME =     0.04 SECS, INTEGRAL =      0.79 TIME LEFT: 172799.20
 STEP:  23 TIME =     0.04 SECS, INTEGRAL =      0.83 TIME LEFT: 172799.16
 STEP:  24 TIME =     0.04 SECS, INTEGRAL =      0.86 TIME LEFT: 172799.12
 STEP:  25 TIME =     0.04 SECS, INTEGRAL =      0.90 TIME LEFT: 172799.09
 STEP:  26 TIME =     0.04 SECS, INTEGRAL =      0.94 TIME LEFT: 172799.05
 STEP:  27 TIME =     0.04 SECS, INTEGRAL =      0.97 TIME LEFT: 172799.02
 STEP:  28 TIME =     0.04 SECS, INTEGRAL =      1.01 TIME LEFT: 172798.98
 STEP:  29 TIME =     0.04 SECS, INTEGRAL =      1.04 TIME LEFT: 172798.94
 STEP:  30 TIME =     0.04 SECS, INTEGRAL =      1.08 TIME LEFT: 172798.91
 STEP:  31 TIME =     0.04 SECS, INTEGRAL =      1.12 TIME LEFT: 172798.87
 STEP:  32 TIME =     0.04 SECS, INTEGRAL =      1.15 TIME LEFT: 172798.84
 STEP:  33 TIME =     0.04 SECS, INTEGRAL =      1.19 TIME LEFT: 172798.80
 STEP:  34 TIME =     0.04 SECS, INTEGRAL =      1.22 TIME LEFT: 172798.76
 STEP:  35 TIME =     0.04 SECS, INTEGRAL =      1.26 TIME LEFT: 172798.73
 STEP:  36 TIME =     0.04 SECS, INTEGRAL =      1.30 TIME LEFT: 172798.69
 STEP:  37 TIME =     0.04 SECS, INTEGRAL =      1.33 TIME LEFT: 172798.66
 STEP:  38 TIME =     0.04 SECS, INTEGRAL =      1.37 TIME LEFT: 172798.62
 STEP:  39 TIME =     0.03 SECS, INTEGRAL =      1.40 TIME LEFT: 172798.59
 STEP:  40 TIME =     0.04 SECS, INTEGRAL =      1.44 TIME LEFT: 172798.55
 STEP:  41 TIME =     0.04 SECS, INTEGRAL =      1.48 TIME LEFT: 172798.51
 STEP:  42 TIME =     0.04 SECS, INTEGRAL =      1.51 TIME LEFT: 172798.48
 STEP:  43 TIME =     0.04 SECS, INTEGRAL =      1.55 TIME LEFT: 172798.44
 STEP:  44 TIME =     0.04 SECS, INTEGRAL =      1.58 TIME LEFT: 172798.41
 STEP:  45 TIME =     0.04 SECS, INTEGRAL =      1.62 TIME LEFT: 172798.37
 STEP:  46 TIME =     0.04 SECS, INTEGRAL =      1.65 TIME LEFT: 172798.33
 STEP:  47 TIME =     0.04 SECS, INTEGRAL =      1.69 TIME LEFT: 172798.30
 STEP:  48 TIME =     0.04 SECS, INTEGRAL =      1.73 TIME LEFT: 172798.26
 STEP:  49 TIME =     0.04 SECS, INTEGRAL =      1.76 TIME LEFT: 172798.23
 STEP:  50 TIME =     0.03 SECS, INTEGRAL =      1.80 TIME LEFT: 172798.19
 STEP:  51 TIME =     0.04 SECS, INTEGRAL =      1.83 TIME LEFT: 172798.16
 STEP:  52 TIME =     0.03 SECS, INTEGRAL =      1.87 TIME LEFT: 172798.12
 STEP:  53 TIME =     0.04 SECS, INTEGRAL =      1.90 TIME LEFT: 172798.09
 STEP:  54 TIME =     0.04 SECS, INTEGRAL =      1.94 TIME LEFT: 172798.05
 STEP:  55 TIME =     0.03 SECS, INTEGRAL =      1.98 TIME LEFT: 172798.01
 STEP:  56 TIME =     0.04 SECS, INTEGRAL =      2.01 TIME LEFT: 172797.98
 STEP:  57 TIME =     0.04 SECS, INTEGRAL =      2.05 TIME LEFT: 172797.94
 STEP:  58 TIME =     0.04 SECS, INTEGRAL =      2.09 TIME LEFT: 172797.90
 STEP:  59 TIME =     0.03 SECS, INTEGRAL =      2.12 TIME LEFT: 172797.86
 STEP:  60 TIME =     0.04 SECS, INTEGRAL =      2.16 TIME LEFT: 172797.83
 STEP:  61 TIME =     0.04 SECS, INTEGRAL =      2.20 TIME LEFT: 172797.79
 STEP:  62 TIME =     0.03 SECS, INTEGRAL =      2.23 TIME LEFT: 172797.76
 STEP:  63 TIME =     0.04 SECS, INTEGRAL =      2.27 TIME LEFT: 172797.72
 STEP:  64 TIME =     0.04 SECS, INTEGRAL =      2.31 TIME LEFT: 172797.68
 STEP:  65 TIME =     0.04 SECS, INTEGRAL =      2.35 TIME LEFT: 172797.64
 STEP:  66 TIME =     0.04 SECS, INTEGRAL =      2.38 TIME LEFT: 172797.60
 STEP:  67 TIME =     0.04 SECS, INTEGRAL =      2.42 TIME LEFT: 172797.57
 STEP:  68 TIME =     0.04 SECS, INTEGRAL =      2.46 TIME LEFT: 172797.53
 STEP:  69 TIME =     0.04 SECS, INTEGRAL =      2.49 TIME LEFT: 172797.50
 STEP:  70 TIME =     0.04 SECS, INTEGRAL =      2.53 TIME LEFT: 172797.46
 STEP:  71 TIME =     0.04 SECS, INTEGRAL =      2.56 TIME LEFT: 172797.42
 STEP:  72 TIME =     0.04 SECS, INTEGRAL =      2.60 TIME LEFT: 172797.39

(To convert to Hartree/Bohr^2, multiply by (10^(-21) x N x a0^2)/(4.184 x 627.51) = 0.0642)


           FORCE MATRIX IN MILLIDYNES/ANGSTROM


                  C  1       C  2       C  3       C  4       C  5       C  6
 ------------------------------------------------------------------------------
     C    1  14.867180
     C    2   3.478655  14.176932
     C    3   0.728857   3.755989  14.664369
     C    4   0.009607   0.000872   0.000718  14.723106
     C    5   4.439813   0.563003   0.039142   0.144491  18.439430
     C    6   4.377096   0.862872   1.180140   0.003706   0.651919  18.281996
     C    7   1.146805   0.884215   4.726685   0.003913   0.044418  10.565097
     C    8   0.039594   0.028720   0.005429   5.278513   0.897926   0.052840
     C    9   0.546005   0.059275   0.003202   0.853648   5.339674   0.023391
     C   10   0.829308   0.039626   0.005570   0.019124  10.506408   0.031683
     H   11   4.184221   0.417893   0.021713   0.001481   0.443366   0.395982
     H   12   0.440184   4.593247   0.439651   0.000367   0.023386   0.033538
     H   13   0.453451   4.526317   0.439977   0.001138   0.059448   0.019974
     H   14   0.033801   0.435992   4.527038   0.000548   0.002511   0.039351
     H   15   0.023775   0.436368   4.515170   0.000411   0.005433   0.036906
     H   16   0.001373   0.000358   0.000252   4.705061   0.019784   0.000468
     H   17   0.000740   0.000262   0.000352   4.722989   0.002335   0.001150
     H   18   0.001510   0.000232   0.000444   4.704018   0.019049   0.000738
     H   19   0.414211   0.041061   0.114778   0.001427   0.009786   5.022369
     H   20   0.017101   0.003144   0.004635   0.419272   0.084302   0.029837
     H   21   0.114632   0.042897   0.412331   0.000948   0.016170   0.448712
     H   22   0.029846   0.002312   0.000795   0.085011   0.435181   0.003018
     H   23   0.087058   0.008143   0.001665   0.007084   0.473189   0.012617
     H   24   0.121149   0.014031   0.002063   0.004253   0.475348   0.018300


                  C  7       C  8       C  9       C 10       H 11       H 12
 ------------------------------------------------------------------------------
     C    7  18.347949
     C    8   0.023627  18.086566
     C    9   0.006323  10.545444  18.445597
     C   10   0.006243   0.064259   1.006087  17.976887
     H   11   0.036760   0.002252   0.039567   0.079975   4.632918
     H   12   0.032086   0.001553   0.003196   0.003291   0.029137   5.195843
     H   13   0.023793   0.013154   0.036985   0.002810   0.029996   0.571154
     H   14   0.431750   0.002397   0.000601   0.000823   0.003616   0.024203
     H   15   0.428586   0.000665   0.000893   0.000910   0.001648   0.029657
     H   16   0.000787   0.436963   0.035670   0.003131   0.000137   0.000135
     H   17   0.000773   0.480284   0.041302   0.001136   0.000203   0.000176
     H   18   0.000971   0.437236   0.036274   0.001836   0.000395   0.000202
     H   19   0.446687   0.003309   0.002228   0.003632   0.013816   0.003718
     H   20   0.022908   4.716862   0.470427   0.009666   0.001917   0.000756
     H   21   5.018911   0.000917   0.000944   0.001308   0.015369   0.003673
     H   22   0.000910   0.471578   4.731410   0.040211   0.004600   0.000449
     H   23   0.002474   0.015243   0.117326   5.079059   0.028049   0.000822
     H   24   0.002668   0.009332   0.087636   5.093611   0.002694   0.001072


                  H 13       H 14       H 15       H 16       H 17       H 18
 ------------------------------------------------------------------------------
     H   13   5.137217
     H   14   0.029694   5.131635
     H   15   0.029858   0.571197   5.121577
     H   16   0.000317   0.000085   0.000135   5.423704
     H   17   0.000283   0.000178   0.000120   0.563110   5.448842
     H   18   0.000342   0.000383   0.000142   0.574625   0.563575   5.422955
     H   19   0.001964   0.015416   0.016158   0.000206   0.000436   0.000161
     H   20   0.002329   0.001493   0.000831   0.023205   0.040129   0.024064
     H   21   0.002472   0.015613   0.013551   0.000242   0.000226   0.000317
     H   22   0.002725   0.000259   0.000294   0.009455   0.029713   0.009583
     H   23   0.000665   0.000151   0.000177   0.001012   0.000143   0.001033
     H   24   0.000853   0.000350   0.000410   0.000510   0.000263   0.000721


                  H 19       H 20       H 21       H 22       H 23       H 24
 ------------------------------------------------------------------------------
     H   19   5.417990
     H   20   0.006103   5.082606
     H   21   0.047973   0.002623   5.415600
     H   22   0.000741   0.104350   0.000450   5.104582
     H   23   0.001027   0.003937   0.000857   0.006433   5.473587
     H   24   0.001105   0.002339   0.000988   0.017903   0.415072   5.485957


          HEAT OF FORMATION =      30.960737 KCALS/MOLE

          ZERO POINT ENERGY     131.349 KCAL/MOL


           NORMAL COORDINATE ANALYSIS (Total motion = 1 Angstrom)


   Root No.       1         2         3         4         5         6         7         8

                 1 A       2 A       3 A       4 A       5 A       6 A       7 A       8 A   

                  56.6      73.4      96.2     141.0     155.2     177.7     250.8     279.8
  
           1   -0.0116    0.0130    0.0071    0.0000    0.0062   -0.0141    0.0173    0.0125
           2    0.0137    0.0012   -0.0068    0.0030   -0.0024    0.0128   -0.0198   -0.0064
           3   -0.0037   -0.0135    0.0095   -0.0125   -0.0042   -0.0010    0.0201   -0.0151
           4   -0.0116    0.0127    0.0071    0.0004    0.0065   -0.0138    0.0173    0.0114
           5   -0.0066    0.0123    0.0000   -0.0017    0.0019   -0.0029   -0.0027    0.0061
           6    0.0338   -0.0276    0.0101   -0.0345   -0.0156   -0.0044    0.0155    0.0369
           7    0.0067   -0.0013    0.0019    0.0027    0.0011    0.0037   -0.0045    0.0030
           8   -0.0119    0.0165    0.0015   -0.0025    0.0035   -0.0085    0.0043    0.0102
           9    0.0403    0.0533   -0.0056    0.0059    0.0050   -0.0148    0.0155   -0.0013
          10   -0.0276   -0.0129   -0.0067    0.0295    0.0158    0.0231    0.0152    0.0147
          11    0.0060   -0.0304   -0.0079    0.0142    0.0131   -0.0274   -0.0216    0.0172
          12   -0.0124   -0.0226   -0.0065    0.0256    0.0193   -0.0095   -0.0082   -0.0083
          13    0.0071    0.0019    0.0082   -0.0138   -0.0009   -0.0090    0.0010    0.0053
          14   -0.0017    0.0026    0.0040   -0.0051   -0.0069    0.0138    0.0101   -0.0079
          15   -0.0013   -0.0076   -0.0001    0.0023    0.0038   -0.0049    0.0048   -0.0129
          16    0.0120    0.0031    0.0005    0.0043    0.0028   -0.0006   -0.0021    0.0042
          17    0.0157    0.0007   -0.0076    0.0039   -0.0040    0.0190   -0.0278   -0.0090
          18   -0.0373    0.0032    0.0171   -0.0160   -0.0128    0.0280    0.0046   -0.0107
          19    0.0216   -0.0042   -0.0026    0.0063    0.0004    0.0077   -0.0110   -0.0046
          20    0.0024    0.0096   -0.0035    0.0013   -0.0007    0.0079   -0.0162    0.0016
          21   -0.0121    0.0421    0.0079   -0.0054   -0.0102    0.0348   -0.0350    0.0212
          22   -0.0255    0.0024   -0.0329   -0.0177   -0.0395   -0.0239   -0.0145   -0.0163
          23    0.0047   -0.0166   -0.0050    0.0005   -0.0032    0.0089    0.0312   -0.0177
          24   -0.0116   -0.0173   -0.0158    0.0085   -0.0007   -0.0255   -0.0172   -0.0188
          25    0.0089   -0.0062    0.0389   -0.0178    0.0094   -0.0108   -0.0275   -0.0283
          26    0.0028   -0.0100   -0.0063   -0.0045   -0.0106    0.0185    0.0416   -0.0201
          27   -0.0007   -0.0104    0.0111    0.0008    0.0074   -0.0054   -0.0054   -0.0270
          28    0.0237   -0.0058   -0.0185   -0.0031   -0.0083    0.0255    0.0035   -0.0030
          29   -0.0223    0.0154    0.0299   -0.0113    0.0037   -0.0275    0.0072    0.0158
          30    0.0003    0.0005   -0.0245    0.0203    0.0041    0.0036    0.0064    0.0243
          31   -0.0404    0.0270    0.0073    0.0127    0.0137   -0.0153    0.0248   -0.0034
          32    0.0380   -0.0054   -0.0178    0.0125    0.0030    0.0048   -0.0321   -0.0047
          33   -0.0063   -0.0101    0.0058   -0.0047    0.0002   -0.0037    0.0184   -0.0191
          34   -0.0391    0.0269    0.0081    0.0131    0.0158   -0.0193    0.0290   -0.0194
          35   -0.0103   -0.0367    0.0121   -0.0325   -0.0122   -0.0006    0.0015    0.0479
          36    0.0440   -0.0643    0.0172   -0.0593   -0.0286   -0.0004    0.0126    0.0771
          37    0.0018    0.0070    0.0109   -0.0143    0.0012   -0.0197    0.0188    0.0459
          38   -0.0132    0.0690   -0.0092    0.0279    0.0190   -0.0148    0.0046   -0.0308
          39    0.0438   -0.0640    0.0173   -0.0590   -0.0283    0.0000    0.0121    0.0756
          40    0.0412    0.0282   -0.0114    0.0232    0.0167   -0.0283    0.0287   -0.0311
          41   -0.0259    0.0598   -0.0012    0.0139    0.0136   -0.0137    0.0062   -0.0002
          42    0.0661    0.0909   -0.0177    0.0283    0.0214   -0.0441    0.0451   -0.0339
          43   -0.0258   -0.0402    0.0153   -0.0200   -0.0188    0.0473   -0.0512    0.0389
          44   -0.0122   -0.0199    0.0092   -0.0230   -0.0027   -0.0189    0.0229    0.0297
          45    0.0584    0.0859   -0.0153    0.0248    0.0180   -0.0359    0.0361   -0.0275
          46   -0.0380   -0.0135   -0.0376   -0.0149    0.1190    0.0635    0.0362    0.0253
          47   -0.0097   -0.0251   -0.0825   -0.0923    0.1385   -0.0221   -0.0436    0.0214
          48   -0.0143   -0.0178   -0.0351   -0.0148    0.0146   -0.0467   -0.0476   -0.0159
          49   -0.0105   -0.0305    0.0806    0.1674   -0.0925    0.0135    0.0202    0.0427
          50    0.0058   -0.0340   -0.0110    0.0148    0.0212   -0.0374   -0.0374    0.0278
          51   -0.0072   -0.0185    0.0265    0.0638   -0.0323    0.0130    0.0329   -0.0264
          52   -0.0363   -0.0074   -0.0443   -0.0286    0.0824    0.0388    0.0205    0.0087
          53    0.0226   -0.0434    0.0671    0.1316   -0.1067   -0.0539   -0.0311    0.0352
          54   -0.0166   -0.0365   -0.0044    0.0411    0.0988    0.0201   -0.0022    0.0305
          55    0.0194    0.0026   -0.0017    0.0060    0.0026    0.0013   -0.0071    0.0029
          56    0.0275   -0.0065   -0.0114    0.0066   -0.0077    0.0331   -0.0452   -0.0176
          57   -0.0752   -0.0123    0.0270   -0.0246   -0.0211    0.0494    0.0037   -0.0230
          58   -0.0549    0.0189   -0.1166   -0.0453   -0.1064   -0.0546   -0.0037   -0.0124
          59    0.0056   -0.0134   -0.0021   -0.0021   -0.0053    0.0176    0.0426   -0.0245
          60   -0.0218   -0.0200   -0.0452    0.0070   -0.0139   -0.0541   -0.0409   -0.0018
          61    0.0382   -0.0116   -0.0077    0.0100   -0.0022    0.0172   -0.0231   -0.0159
          62    0.0013    0.0113   -0.0034    0.0014   -0.0012    0.0102   -0.0200    0.0038
          63   -0.0259    0.0651    0.0087   -0.0037   -0.0167    0.0661   -0.0859    0.0502
          64    0.0393   -0.0223    0.1226   -0.0023    0.0696    0.0178   -0.0390   -0.0542
          65    0.0022   -0.0135   -0.0125   -0.0033   -0.0121    0.0139    0.0426   -0.0199
          66    0.0085   -0.0071    0.0476    0.0029    0.0276    0.0109   -0.0129   -0.0330
          67    0.0234   -0.0024   -0.0426    0.0114   -0.0114    0.0390    0.0300    0.0246
          68   -0.0283    0.0251    0.0404   -0.0097    0.0119   -0.0499   -0.0220    0.0381
          69   -0.0002    0.0025   -0.0346    0.0268    0.0031    0.0084    0.0168    0.0382
          70    0.0387   -0.0162   -0.0179   -0.0076   -0.0115    0.0435   -0.0209   -0.0394
          71   -0.0349    0.0171    0.0426   -0.0187    0.0052   -0.0434    0.0338    0.0163
          72    0.0019    0.0056   -0.0363    0.0300    0.0050    0.0062   -0.0018    0.0478


   Root No.       9        10        11        12        13        14        15        16

                 9 A      10 A      11 A      12 A      13 A      14 A      15 A      16 A   

                 354.2     385.2     507.5     544.5     632.9     641.1     685.5     754.8
  
           1   -0.0120   -0.0012    0.0003    0.0034    0.0222   -0.0111    0.0220    0.0231
           2    0.0043    0.0045   -0.0024    0.0151    0.0102   -0.0027    0.0140   -0.0199
           3    0.0122    0.0109    0.0360    0.0294   -0.0196    0.0033   -0.0237    0.0090
           4   -0.0169    0.0032    0.0041   -0.0076    0.0226   -0.0223    0.0183   -0.0004
           5   -0.0139    0.0166    0.0027   -0.0163   -0.0200    0.0078   -0.0232   -0.0398
           6   -0.0083    0.0099   -0.0009   -0.0055   -0.0005   -0.0013   -0.0061    0.0060
           7   -0.0127    0.0121    0.0038   -0.0162   -0.0130   -0.0021   -0.0220   -0.0573
           8   -0.0183    0.0159    0.0046   -0.0208   -0.0124    0.0012   -0.0160   -0.0052
           9    0.0046    0.0094   -0.0027   -0.0036   -0.0001   -0.0018   -0.0084    0.0070
          10    0.0089    0.0038    0.0118   -0.0021   -0.0063    0.0007    0.0042    0.0007
          11    0.0224    0.0086    0.0186   -0.0037   -0.0023   -0.0016    0.0036   -0.0002
          12   -0.0298    0.0008   -0.0324    0.0138    0.0178   -0.0011   -0.0125    0.0007
          13    0.0049   -0.0055   -0.0167    0.0562   -0.0331    0.0277    0.0125   -0.0090
          14    0.0134    0.0031    0.0085    0.0118    0.0695   -0.0410   -0.0229   -0.0058
          15   -0.0047    0.0004    0.0351    0.0150   -0.0164    0.0039    0.0277   -0.0099
          16   -0.0151    0.0106    0.0055   -0.0158   -0.0115    0.0041   -0.0078    0.0504
          17    0.0042    0.0140   -0.0080    0.0075   -0.0011    0.0139    0.0181    0.0110
          18    0.0291    0.0455   -0.0219   -0.0126   -0.0057    0.0046   -0.0040    0.0189
          19   -0.0053    0.0155   -0.0007   -0.0106   -0.0135    0.0077   -0.0086   -0.0038
          20   -0.0085    0.0110   -0.0010   -0.0020   -0.0041    0.0132    0.0162    0.0808
          21   -0.0203   -0.0270    0.0128    0.0063   -0.0009   -0.0029   -0.0071    0.0050
          22    0.0132   -0.0120    0.0099   -0.0215    0.0062    0.0013   -0.0010    0.0027
          23   -0.0171   -0.0304   -0.0244   -0.0086   -0.0203    0.0038   -0.0012    0.0044
          24   -0.0252   -0.0059   -0.0253    0.0019    0.0110    0.0006   -0.0072    0.0019
          25    0.0197   -0.0269   -0.0094   -0.0174   -0.0036    0.0072   -0.0042    0.0013
          26   -0.0082   -0.0274    0.0112   -0.0135   -0.0121   -0.0035    0.0132   -0.0042
          27   -0.0052   -0.0105    0.0262   -0.0101    0.0071   -0.0076    0.0187   -0.0104
          28    0.0150   -0.0017   -0.0127    0.0371    0.0216   -0.0058   -0.0104   -0.0076
          29    0.0192   -0.0173   -0.0147    0.0320    0.0098    0.0002   -0.0072   -0.0081
          30    0.0419   -0.0348   -0.0037   -0.0207   -0.0087    0.0022    0.0023   -0.0004
          31   -0.0063    0.0022    0.0086   -0.0078    0.0333   -0.0289    0.0322    0.0157
          32   -0.0089   -0.0227    0.0210    0.0316   -0.0062    0.0143    0.0503   -0.0341
          33    0.0104    0.0027    0.0453    0.0301   -0.0204    0.0025   -0.0075    0.0013
          34   -0.0064    0.0064    0.0387    0.0233   -0.0077   -0.0119   -0.0223    0.0401
          35   -0.0339    0.0177   -0.0103   -0.0463    0.0040   -0.0057    0.0175   -0.0496
          36   -0.0254    0.0089   -0.0255   -0.0385    0.0298   -0.0149    0.0404   -0.0178
          37   -0.0342    0.0004   -0.0267   -0.0455    0.0542   -0.0359    0.0629    0.0032
          38   -0.0019    0.0188    0.0197    0.0016   -0.0481    0.0190   -0.0715   -0.0116
          39   -0.0241    0.0077   -0.0256   -0.0355    0.0317   -0.0152    0.0442   -0.0112
          40    0.0185    0.0514   -0.0255   -0.0339   -0.0080    0.0077    0.0249   -0.1092
          41   -0.0206    0.0058    0.0076   -0.0211    0.0043   -0.0141    0.0019   -0.0318
          42    0.0315    0.0411   -0.0280   -0.0193    0.0099    0.0023    0.0398   -0.0448
          43   -0.0464   -0.0303    0.0368    0.0039   -0.0316   -0.0027   -0.0870   -0.0009
          44   -0.0228    0.0249    0.0035   -0.0276   -0.0102   -0.0060   -0.0259   -0.0177
          45    0.0251    0.0310   -0.0214   -0.0134    0.0097    0.0008    0.0321   -0.0240
          46    0.0013    0.0075    0.0043    0.0193   -0.0275    0.0012    0.0105   -0.0047
          47    0.0391    0.0187    0.0397   -0.0064    0.0088   -0.0050    0.0082   -0.0049
          48   -0.0090    0.0051   -0.0088   -0.0094    0.0484   -0.0043   -0.0155    0.0023
          49    0.0142    0.0253    0.0256    0.0195   -0.0131   -0.0021    0.0134   -0.0083
          50    0.0361    0.0215    0.0382   -0.0030    0.0055   -0.0045    0.0087   -0.0047
          51   -0.0616   -0.0247   -0.0749    0.0180   -0.0026    0.0047   -0.0218    0.0085
          52    0.0041   -0.0023    0.0035   -0.0015   -0.0116    0.0020    0.0028    0.0020
          53    0.0339    0.0257    0.0390    0.0014    0.0056   -0.0052    0.0093   -0.0058
          54   -0.0204    0.0324   -0.0143    0.0525    0.0081   -0.0065    0.0005   -0.0157
          55   -0.0171    0.0082    0.0104   -0.0143   -0.0189    0.0063   -0.0216    0.0462
          56    0.0097    0.0271   -0.0175   -0.0044   -0.0255    0.0332    0.0100   -0.0489
          57    0.0645    0.1037   -0.0949   -0.0572   -0.0030    0.0389    0.1068   -0.1015
          58   -0.0031    0.0034    0.0124    0.0213   -0.0265   -0.0047    0.0174   -0.0132
          59   -0.0195   -0.0387   -0.0164   -0.0155   -0.0254    0.0020    0.0069    0.0019
          60   -0.0224    0.0180   -0.0394    0.0286    0.0147    0.0020   -0.0191    0.0023
          61    0.0083    0.0169   -0.0081    0.0077   -0.0065    0.0165    0.0117    0.0157
          62   -0.0114    0.0073   -0.0008   -0.0022   -0.0035    0.0143    0.0230    0.0701
          63   -0.0568   -0.0799    0.0161    0.0073    0.0119    0.0082    0.0846   -0.1448
          64    0.0335   -0.0630   -0.0116   -0.1056    0.0355    0.0215   -0.0222    0.0257
          65   -0.0165   -0.0309   -0.0030   -0.0120   -0.0348    0.0044    0.0155   -0.0001
          66    0.0178   -0.0119    0.0558   -0.0367    0.0692   -0.0217    0.0082   -0.0132
          67    0.0414   -0.0324   -0.0213   -0.0084    0.1278    0.1746   -0.0655   -0.0005
          68    0.0581   -0.0479   -0.0840    0.0352   -0.1463   -0.1835   -0.0033    0.0143
          69    0.0566   -0.0508   -0.0118   -0.0421    0.0293    0.0733   -0.0227    0.0045
          70   -0.0022    0.0324    0.0018    0.0568    0.0000   -0.2336    0.0077   -0.0112
          71   -0.0118   -0.0115    0.0235    0.0515    0.0668    0.2405    0.0140   -0.0315
          72    0.0824   -0.0637   -0.0491   -0.0515   -0.0465   -0.0680   -0.0300    0.0231


   Root No.      17        18        19        20        21        22        23        24

                17 A      18 A      19 A      20 A      21 A      22 A      23 A      24 A   

                 788.2     824.4     872.3     891.8     918.8     943.2     964.9     992.4
  
           1   -0.0083    0.0083   -0.0007   -0.0028    0.0027   -0.0020   -0.0065    0.0068
           2   -0.0241    0.0068   -0.0047    0.0093    0.0006   -0.0019    0.0015   -0.0054
           3    0.0290   -0.0065   -0.0127    0.0269   -0.0012    0.0003    0.0196    0.0060
           4   -0.0241    0.0158   -0.0066    0.0356   -0.0074    0.0035    0.0068   -0.0099
           5   -0.0012   -0.0071   -0.0004   -0.0081    0.0029    0.0001   -0.0079    0.0161
           6    0.0047    0.0287   -0.0018    0.0130   -0.0001    0.0001   -0.0106   -0.0112
           7   -0.0089   -0.0047   -0.0013   -0.0007    0.0013   -0.0019    0.0015   -0.0082
           8    0.0104   -0.0031    0.0032   -0.0058   -0.0004   -0.0009    0.0059   -0.0089
           9   -0.0223    0.0224    0.0089   -0.0153   -0.0007   -0.0004    0.0040    0.0159
          10   -0.0014    0.0022   -0.0219   -0.0047    0.0016   -0.0017    0.0027    0.0053
          11   -0.0010    0.0002   -0.0005    0.0044    0.0040   -0.0225    0.0073    0.0163
          12    0.0047    0.0006   -0.0069   -0.0039   -0.0011    0.0136   -0.0019   -0.0053
          13   -0.0051   -0.0053   -0.0092   -0.0134    0.0083    0.0087   -0.0015    0.0014
          14    0.0168   -0.0006    0.0090   -0.0036   -0.0050   -0.0049    0.0023    0.0029
          15   -0.0094   -0.0026   -0.0025   -0.0099    0.0054   -0.0067    0.0008    0.0049
          16    0.0408   -0.0067    0.0086   -0.0217    0.0010   -0.0021    0.0057   -0.0041
          17   -0.0240    0.0055   -0.0078    0.0238   -0.0025    0.0039   -0.0056    0.0051
          18   -0.0218   -0.0175   -0.0032    0.0061    0.0022    0.0001   -0.0291   -0.0014
          19    0.0060   -0.0032    0.0005   -0.0017   -0.0001    0.0009   -0.0019    0.0042
          20    0.0226   -0.0019    0.0026   -0.0039    0.0000    0.0001    0.0002   -0.0004
          21   -0.0162   -0.0185   -0.0029    0.0000   -0.0004    0.0000    0.0186   -0.0171
          22   -0.0001    0.0033   -0.0202   -0.0051   -0.0137   -0.0013   -0.0018   -0.0030
          23   -0.0014    0.0013   -0.0019    0.0068    0.0037   -0.0108    0.0004   -0.0043
          24    0.0011    0.0014   -0.0078   -0.0002   -0.0039   -0.0059    0.0005    0.0010
          25    0.0007   -0.0044    0.0330    0.0115   -0.0442   -0.0198   -0.0028   -0.0055
          26   -0.0040   -0.0009    0.0037   -0.0117   -0.0031    0.0237   -0.0052   -0.0020
          27   -0.0058   -0.0043    0.0213   -0.0159   -0.0247    0.0170   -0.0049    0.0094
          28    0.0083   -0.0045   -0.0030   -0.0141    0.0072    0.0102   -0.0012    0.0047
          29    0.0073   -0.0032    0.0004   -0.0122    0.0045   -0.0104   -0.0017   -0.0070
          30   -0.0030   -0.0003   -0.0012   -0.0090    0.0137   -0.0318   -0.0119   -0.0148
          31   -0.0420   -0.0149   -0.0029    0.0079   -0.0012   -0.0003   -0.0267    0.0925
          32   -0.0111    0.0368   -0.0093    0.0206   -0.0013   -0.0077    0.0780   -0.0771
          33    0.0213   -0.0061   -0.0145    0.0322   -0.0029   -0.0010    0.0371    0.0146
          34    0.0258    0.0667   -0.0276    0.1121   -0.0122    0.0090    0.0121   -0.0449
          35    0.0193   -0.1170   -0.0164    0.0071    0.0008    0.0022    0.0394    0.0344
          36   -0.0062   -0.0657   -0.0025   -0.0123    0.0007   -0.0010    0.0172    0.0176
          37   -0.0612   -0.0253    0.0125   -0.0123   -0.0111    0.0076    0.0005    0.0378
          38   -0.0067    0.1077    0.0154   -0.0123    0.0005    0.0036   -0.0581    0.0096
          39   -0.0090   -0.0628   -0.0028   -0.0067   -0.0002   -0.0001    0.0184    0.0151
          40    0.0749   -0.0768   -0.0260    0.0352    0.0072   -0.0031   -0.0327   -0.0394
          41   -0.0062   -0.0669   -0.0099    0.0185   -0.0081    0.0028    0.0899   -0.0304
          42    0.0488   -0.0615   -0.0171    0.0235    0.0022   -0.0005   -0.0009   -0.0185
          43   -0.0998    0.0739    0.0306   -0.0636    0.0008   -0.0035    0.0268    0.0447
          44    0.0035    0.0776    0.0075    0.0215   -0.0062    0.0019   -0.0594   -0.0259
          45    0.0321   -0.0492   -0.0113    0.0132    0.0013   -0.0002    0.0102   -0.0088
          46   -0.0039   -0.0092    0.0812    0.0285    0.0073   -0.0453    0.0058    0.0144
          47   -0.0011   -0.0010    0.0014   -0.0153   -0.0101    0.0455   -0.0132   -0.0233
          48    0.0075    0.0111   -0.1083   -0.0528   -0.0181    0.1129   -0.0217   -0.0470
          49   -0.0031   -0.0077    0.0565    0.0004   -0.0060    0.0369   -0.0158   -0.0300
          50   -0.0016   -0.0012    0.0032   -0.0123   -0.0076    0.0369   -0.0110   -0.0196
          51    0.0056    0.0009    0.0073    0.0368    0.0246   -0.1163    0.0364    0.0711
          52   -0.0016    0.0015   -0.0115    0.0060    0.0065   -0.0309    0.0102    0.0201
          53   -0.0011   -0.0019    0.0076   -0.0140   -0.0080    0.0457   -0.0132   -0.0233
          54    0.0038   -0.0191    0.1526    0.0104   -0.0162    0.0822   -0.0362   -0.0707
          55    0.0272   -0.0221    0.0032   -0.0069   -0.0005    0.0014   -0.0068   -0.0033
          56   -0.0304    0.0139   -0.0118    0.0435   -0.0118    0.0147    0.0165    0.0033
          57    0.0918    0.1499    0.0368   -0.0830   -0.0096   -0.0023    0.1489   -0.0097
          58   -0.0048   -0.0191    0.1836    0.0476    0.2290    0.0506    0.0022   -0.0079
          59   -0.0047    0.0011   -0.0042   -0.0063   -0.0116    0.0178   -0.0108   -0.0203
          60    0.0074   -0.0042    0.0536    0.0417    0.0954   -0.0516    0.0251    0.0337
          61   -0.0513    0.0044   -0.0144    0.0416   -0.0052    0.0125   -0.0140    0.0486
          62    0.0410    0.0040    0.0018    0.0010    0.0002    0.0003   -0.0093    0.0058
          63    0.2332    0.0594   -0.0129    0.0580    0.0029    0.0012   -0.1100    0.0653
          64   -0.0013    0.0228   -0.0637    0.0216    0.3255    0.0492    0.0112   -0.0193
          65   -0.0085   -0.0010    0.0034   -0.0045   -0.0250    0.0165   -0.0119   -0.0244
          66    0.0039    0.0030   -0.0032   -0.0297    0.1214    0.0529    0.0131    0.0548
          67    0.0252   -0.0057    0.0328    0.0418   -0.0712    0.0902    0.0431    0.0378
          68    0.0147   -0.0025   -0.0191    0.0112   -0.0121    0.1375    0.0261    0.0599
          69    0.0051   -0.0008    0.0142    0.0188   -0.0233    0.0131    0.0099    0.0040
          70    0.0210    0.0009   -0.0065   -0.0554    0.0470   -0.1085   -0.0274   -0.0506
          71   -0.0231   -0.0118   -0.0115   -0.0443    0.0441   -0.0348   -0.0288   -0.0148
          72    0.0174    0.0037    0.0122    0.0472   -0.0489    0.0710    0.0306    0.0295


   Root No.      25        26        27        28        29        30        31        32

                25 A      26 A      27 A      28 A      29 A      30 A      31 A      32 A   

                 997.6    1014.6    1026.3    1030.7    1038.6    1076.1    1081.9    1107.6
  
           1   -0.0048   -0.0121   -0.0171    0.0084   -0.0109    0.0059    0.0001   -0.0069
           2   -0.0158   -0.0074   -0.0002    0.0103   -0.0076    0.0062    0.0010    0.0007
           3    0.0124   -0.0022    0.0101    0.0161   -0.0082   -0.0040    0.0167   -0.0135
           4    0.0021    0.0087    0.0124   -0.0030    0.0041   -0.0029   -0.0054    0.0096
           5    0.0150   -0.0060   -0.0236   -0.0001   -0.0086    0.0293   -0.0060    0.0097
           6   -0.0050    0.0023   -0.0167   -0.0077   -0.0029   -0.0059   -0.0282   -0.0175
           7   -0.0193   -0.0087    0.0009    0.0133   -0.0108   -0.0280   -0.0055   -0.0071
           8   -0.0089    0.0040    0.0164   -0.0006    0.0073   -0.0164    0.0061   -0.0123
           9    0.0064   -0.0033    0.0204    0.0144   -0.0024    0.0015    0.0107    0.0265
          10   -0.0032   -0.0115    0.0109   -0.0223   -0.0143    0.0001   -0.0007   -0.0003
          11   -0.0119    0.0037   -0.0045   -0.0076    0.0075   -0.0017   -0.0046    0.0024
          12    0.0040   -0.0026    0.0052   -0.0051   -0.0077    0.0009    0.0000    0.0009
          13   -0.0001   -0.0105   -0.0011   -0.0042    0.0152   -0.0063   -0.0054    0.0035
          14   -0.0018    0.0149    0.0009   -0.0011   -0.0091    0.0047    0.0043   -0.0030
          15   -0.0037   -0.0076   -0.0009   -0.0009    0.0054   -0.0009    0.0028   -0.0023
          16   -0.0032    0.0048    0.0046   -0.0066    0.0073    0.0153    0.0054    0.0042
          17    0.0094   -0.0003    0.0004    0.0026   -0.0024   -0.0190   -0.0041   -0.0043
          18   -0.0174   -0.0055    0.0163    0.0035    0.0080    0.0195   -0.0072    0.0102
          19    0.0091    0.0051    0.0040   -0.0068    0.0078    0.0127    0.0036   -0.0026
          20   -0.0057   -0.0061   -0.0055    0.0087   -0.0107   -0.0183   -0.0075    0.0009
          21    0.0004    0.0047   -0.0305   -0.0175   -0.0013   -0.0060    0.0168   -0.0089
          22    0.0016    0.0143   -0.0160    0.0310    0.0241   -0.0008    0.0007    0.0006
          23    0.0037   -0.0027    0.0030    0.0040   -0.0059    0.0018    0.0042   -0.0024
          24   -0.0009    0.0038   -0.0058    0.0105    0.0090   -0.0005    0.0009   -0.0012
          25    0.0039   -0.0018    0.0099   -0.0096   -0.0219    0.0032    0.0033   -0.0019
          26    0.0002    0.0010   -0.0026   -0.0042    0.0056   -0.0025   -0.0060    0.0038
          27   -0.0096    0.0017   -0.0043   -0.0201    0.0074   -0.0050   -0.0131    0.0064
          28   -0.0060    0.0318    0.0014   -0.0026   -0.0055    0.0014    0.0009    0.0010
          29    0.0107   -0.0283   -0.0002   -0.0058    0.0187   -0.0050   -0.0039    0.0037
          30    0.0120    0.0165    0.0057    0.0010   -0.0100    0.0000   -0.0008    0.0006
          31    0.0482   -0.0337   -0.0392    0.0509   -0.0602   -0.0851    0.0949   -0.0763
          32   -0.0999   -0.0439    0.0343    0.0372    0.0063    0.2065    0.0659    0.0407
          33    0.0037   -0.0226    0.0133    0.0408   -0.0216    0.0283    0.0737   -0.0279
          34    0.0466    0.0390   -0.0535   -0.0361   -0.0152    0.0070   -0.0792    0.1716
          35    0.0739    0.0079   -0.0229    0.0055   -0.0181    0.0695    0.0137    0.1663
          36    0.0121   -0.0037    0.0142    0.0128   -0.0013    0.0125    0.0173    0.0050
          37    0.0189    0.0072    0.0595   -0.0087    0.0386    0.0421    0.0493   -0.0558
          38    0.0052    0.0039   -0.0436   -0.0424    0.0194    0.0657   -0.0384   -0.0805
          39    0.0094   -0.0039    0.0187    0.0156   -0.0034   -0.0055    0.0164    0.0054
          40   -0.0530   -0.0229   -0.0870   -0.0079   -0.0344   -0.0643    0.0170   -0.0027
          41    0.0300    0.0440    0.1138    0.0025    0.0479    0.0235   -0.1464   -0.1440
          42   -0.0123   -0.0037   -0.0282   -0.0037   -0.0107   -0.0185   -0.0130   -0.0070
          43    0.0021   -0.0303    0.0537    0.0792   -0.0398   -0.0363   -0.0598    0.0559
          44   -0.0286    0.0287    0.0070   -0.0737    0.0611   -0.0019    0.2194   -0.0125
          45    0.0010    0.0010   -0.0078    0.0001   -0.0036    0.0014   -0.0260   -0.0075
          46   -0.0118    0.0300   -0.0329    0.0422    0.0448   -0.0030   -0.0027    0.0007
          47    0.0161   -0.0044    0.0047    0.0080   -0.0072    0.0012    0.0027   -0.0009
          48    0.0357   -0.0507    0.0570   -0.0571   -0.0795    0.0064    0.0080   -0.0027
          49    0.0206    0.0072   -0.0079    0.0375    0.0081    0.0016    0.0070   -0.0041
          50    0.0136   -0.0050    0.0045    0.0066   -0.0068    0.0011    0.0032   -0.0020
          51   -0.0508    0.0245   -0.0224   -0.0228    0.0341   -0.0057   -0.0176    0.0114
          52   -0.0140   -0.0033    0.0021   -0.0194   -0.0017   -0.0013   -0.0035    0.0011
          53    0.0162   -0.0046    0.0050    0.0073   -0.0077    0.0012    0.0027   -0.0008
          54    0.0479    0.0448   -0.0394    0.1209    0.0468    0.0037    0.0122   -0.0025
          55    0.0110    0.0218    0.0292   -0.0269    0.0354   -0.0110    0.0211    0.0238
          56    0.0776    0.0625    0.0617   -0.0666    0.0791   -0.1274    0.0553    0.0529
          57    0.0460    0.0122   -0.0475   -0.0036   -0.0256   -0.0204    0.0155   -0.0187
          58    0.0074   -0.0396    0.0395   -0.0735   -0.0635    0.0023   -0.0023    0.0008
          59    0.0139   -0.0055    0.0032    0.0105   -0.0056    0.0016    0.0018    0.0004
          60   -0.0206   -0.0049    0.0092   -0.0320   -0.0158    0.0007    0.0052   -0.0069
          61    0.1001    0.0163   -0.0578   -0.0390    0.0069    0.1639   -0.0122   -0.1192
          62   -0.0049   -0.0070    0.0039    0.0131   -0.0097   -0.0170   -0.0109    0.0012
          63    0.0032   -0.0122    0.0881    0.0443    0.0089    0.0279   -0.0258    0.0096
          64    0.0192   -0.0139   -0.0100    0.0603    0.0253    0.0016    0.0217   -0.0132
          65    0.0176   -0.0132    0.0083    0.0133   -0.0143    0.0030    0.0115   -0.0091
          66   -0.0438    0.0299   -0.0336   -0.0403    0.0637   -0.0175   -0.0470    0.0318
          67   -0.0199   -0.1239   -0.0159   -0.0154    0.0637   -0.0096   -0.0023    0.0032
          68   -0.0633    0.1164   -0.0081    0.0039   -0.0299    0.0122    0.0107   -0.0046
          69    0.0015   -0.0456   -0.0025   -0.0041    0.0180   -0.0042   -0.0018    0.0009
          70    0.0631   -0.0923    0.0004   -0.0127    0.0498   -0.0141   -0.0116    0.0115
          71   -0.0076    0.1442    0.0188    0.0022   -0.0533    0.0103    0.0056    0.0021
          72   -0.0171   -0.0596   -0.0111   -0.0003    0.0207   -0.0042   -0.0012   -0.0046


   Root No.      33        34        35        36        37        38        39        40

                33 A      34 A      35 A      36 A      37 A      38 A      39 A      40 A   

                1117.2    1134.0    1175.5    1203.5    1224.2    1239.2    1246.1    1286.5
  
           1   -0.0006   -0.0334   -0.0004    0.0043    0.0196   -0.0091   -0.0364    0.0592
           2    0.0015   -0.0189    0.0036   -0.0176   -0.0281   -0.0010   -0.0128   -0.0175
           3   -0.0049    0.0235   -0.0051   -0.0013   -0.0056   -0.0006   -0.0176    0.0110
           4   -0.0071    0.0310    0.0012   -0.0057   -0.0074   -0.0013   -0.0173   -0.0565
           5   -0.0226   -0.0031    0.0014   -0.0053   -0.0072   -0.0038   -0.0263   -0.0325
           6   -0.0123   -0.0222   -0.0011    0.0031    0.0011    0.0016    0.0097   -0.0059
           7    0.0150    0.0142   -0.0019    0.0045    0.0034    0.0014    0.0078    0.0059
           8    0.0215   -0.0024   -0.0026    0.0116    0.0268   -0.0002    0.0079    0.0094
           9    0.0179    0.0013    0.0007   -0.0005   -0.0003   -0.0004   -0.0020   -0.0004
          10    0.0000   -0.0006    0.0128   -0.0001    0.0009    0.0052    0.0001   -0.0002
          11    0.0017    0.0003   -0.0231   -0.0121    0.0037   -0.0094    0.0035   -0.0009
          12    0.0002    0.0012   -0.0383    0.0000   -0.0024   -0.0155    0.0001    0.0005
          13    0.0047    0.0040   -0.0019    0.0026   -0.0069    0.0005   -0.0027    0.0012
          14   -0.0044   -0.0006    0.0070   -0.0092    0.0060   -0.0009   -0.0070    0.0121
          15   -0.0008   -0.0040    0.0094   -0.0131   -0.0008   -0.0050   -0.0065    0.0082
          16   -0.0086   -0.0127    0.0026   -0.0083   -0.0131    0.0004   -0.0019   -0.0186
          17    0.0080    0.0094   -0.0014    0.0001   -0.0097    0.0016    0.0079    0.0333
          18   -0.0019   -0.0089   -0.0012    0.0026    0.0039    0.0002    0.0026   -0.0041
          19    0.0025   -0.0132    0.0021   -0.0073   -0.0200    0.0016    0.0070    0.0151
          20    0.0021    0.0261   -0.0018    0.0052    0.0067    0.0011    0.0043   -0.0149
          21   -0.0029    0.0027    0.0000   -0.0019   -0.0035    0.0002   -0.0006    0.0020
          22    0.0004    0.0012   -0.0123    0.0059   -0.0045   -0.0154   -0.0007    0.0006
          23   -0.0017   -0.0010    0.0160    0.0149   -0.0066    0.0353   -0.0110    0.0037
          24   -0.0005   -0.0018    0.0378   -0.0173    0.0115    0.0485    0.0007   -0.0013
          25   -0.0016   -0.0018   -0.0070    0.0098   -0.0044    0.0011   -0.0055    0.0031
          26    0.0030    0.0023    0.0009    0.0175   -0.0054   -0.0333    0.0059   -0.0040
          27    0.0057   -0.0001    0.0147   -0.0167    0.0127   -0.0085    0.0140   -0.0077
          28   -0.0004    0.0023    0.0046   -0.0033    0.0061    0.0024    0.0069   -0.0016
          29    0.0028    0.0046    0.0007    0.0009    0.0014    0.0013    0.0076   -0.0053
          30    0.0003    0.0048   -0.0059    0.0069   -0.0017   -0.0005    0.0010   -0.0024
          31   -0.0355   -0.1626   -0.0426    0.0461   -0.0316    0.0379    0.1443   -0.1030
          32   -0.0690   -0.0499   -0.0410    0.0798    0.0741    0.0138    0.0571   -0.0005
          33   -0.0412   -0.0333   -0.0353    0.0455    0.0092    0.0217    0.0721   -0.0432
          34    0.0417   -0.0400    0.0098    0.0038   -0.0092    0.0188    0.1278    0.0652
          35    0.0325   -0.0059    0.0107   -0.0107   -0.0200    0.0068    0.0491    0.1026
          36   -0.0013    0.0082    0.0000   -0.0035   -0.0053   -0.0007   -0.0085    0.0198
          37   -0.1322    0.1845   -0.0026   -0.0101   -0.0321    0.0189    0.0930    0.1078
          38   -0.1443    0.0538    0.0014   -0.0098   -0.0294    0.0114    0.0620    0.1068
          39    0.0029    0.0139   -0.0031    0.0034    0.0020    0.0020    0.0076   -0.0133
          40   -0.0254    0.0745   -0.0072    0.0267    0.0579    0.0022    0.0249    0.0175
          41    0.0516   -0.1116   -0.0001   -0.0097   -0.0482    0.0078    0.0356    0.0418
          42   -0.0083    0.0180   -0.0029    0.0112    0.0230    0.0021    0.0178    0.0163
          43    0.0051    0.0496   -0.0055    0.0291    0.0629    0.0018    0.0274    0.0198
          44    0.1418   -0.0058    0.0033   -0.0207   -0.0537    0.0041    0.0106    0.0379
          45   -0.0128   -0.0154    0.0006   -0.0031   -0.0064   -0.0016   -0.0111   -0.0149
          46    0.0011   -0.0016    0.0361   -0.0276    0.0176    0.0549    0.0048   -0.0039
          47   -0.0005    0.0002    0.0065    0.0123   -0.0047    0.0134   -0.0042    0.0003
          48   -0.0027    0.0025   -0.0436    0.0523   -0.0292   -0.0595   -0.0114    0.0058
          49   -0.0025   -0.0019    0.0614    0.0029    0.0042    0.0499   -0.0036   -0.0003
          50   -0.0011   -0.0012    0.0308   -0.0053    0.0060    0.0412   -0.0015   -0.0006
          51    0.0070    0.0054   -0.1709   -0.0095   -0.0112   -0.1365    0.0099    0.0004
          52    0.0009   -0.0006   -0.0005   -0.0109    0.0046   -0.0043    0.0033   -0.0007
          53   -0.0005    0.0002    0.0077    0.0122   -0.0044    0.0150   -0.0043    0.0004
          54   -0.0026    0.0039   -0.0547    0.0566   -0.0334   -0.0798   -0.0123    0.0071
          55   -0.0555   -0.0478   -0.0003    0.0059    0.0268   -0.0055   -0.0249   -0.0284
          56   -0.1447   -0.0917   -0.0106    0.0455    0.1211   -0.0177   -0.0685    0.0006
          57    0.0106    0.0196   -0.0007   -0.0096   -0.0141    0.0013   -0.0019   -0.0028
          58    0.0004   -0.0036   -0.0918   -0.0526    0.0171    0.0484   -0.0024    0.0022
          59    0.0006   -0.0036   -0.0942   -0.0642    0.0202    0.1319   -0.0143    0.0055
          60   -0.0053    0.0026    0.2561    0.1420   -0.0421   -0.1359    0.0055   -0.0043
          61    0.1483    0.0630   -0.0132    0.0533    0.1286   -0.0057   -0.0083   -0.0679
          62    0.0052    0.0272   -0.0021    0.0064    0.0088    0.0011    0.0051   -0.0155
          63    0.0186   -0.0026   -0.0010    0.0033    0.0090   -0.0010   -0.0021   -0.0026
          64   -0.0085   -0.0064    0.0381   -0.0811    0.0263   -0.0674    0.0169    0.0023
          65   -0.0057   -0.0080    0.0523   -0.0813    0.0335   -0.1189    0.0345   -0.0061
          66    0.0231    0.0212   -0.0802    0.1780   -0.0646    0.1572   -0.0420   -0.0034
          67    0.0034   -0.0084    0.0266   -0.0298    0.0207    0.0023    0.0465   -0.0494
          68   -0.0066   -0.0095    0.0263   -0.0239    0.0306   -0.0042    0.0417   -0.0383
          69    0.0017    0.0000    0.0051   -0.0063    0.0046   -0.0016    0.0161   -0.0216
          70    0.0066    0.0100   -0.0055    0.0149    0.0212    0.0041    0.0609   -0.0595
          71   -0.0026    0.0064    0.0028   -0.0019    0.0132    0.0057    0.0366   -0.0366
          72    0.0007   -0.0015    0.0006   -0.0042   -0.0199   -0.0061   -0.0557    0.0591


   Root No.      41        42        43        44        45        46        47        48

                41 A      42 A      43 A      44 A      45 A      46 A      47 A      48 A   

                1326.1    1353.5    1368.6    1390.4    1396.2    1406.6    1416.0    1421.1
  
           1   -0.0227    0.0096    0.0011    0.0044   -0.0001    0.0035   -0.0092    0.0084
           2    0.0391    0.0158    0.0284    0.0168   -0.0008    0.0074   -0.0004    0.0255
           3   -0.0099    0.0069   -0.0017    0.0054   -0.0003   -0.0025   -0.0045    0.0105
           4   -0.0055   -0.0032   -0.0047   -0.0002   -0.0003   -0.0267    0.0169   -0.0078
           5   -0.0201   -0.0070   -0.0122   -0.0066    0.0005    0.0105   -0.0336   -0.0087
           6    0.0028   -0.0012   -0.0004   -0.0009    0.0000   -0.0007    0.0011   -0.0019
           7   -0.0176   -0.0183   -0.0005   -0.0090    0.0008    0.0467    0.0279    0.0118
           8    0.0388    0.0420   -0.0190    0.0013   -0.0003   -0.0156    0.0146   -0.0002
           9   -0.0036   -0.0033    0.0005   -0.0009    0.0001    0.0049    0.0024    0.0012
          10    0.0001    0.0021    0.0039   -0.0113   -0.0396    0.0027    0.0028   -0.0188
          11   -0.0005   -0.0004    0.0015   -0.0291    0.0013   -0.0057   -0.0023    0.0113
          12   -0.0002   -0.0059   -0.0110    0.0281   -0.0157   -0.0072   -0.0079    0.0526
          13    0.0155   -0.0105   -0.0045   -0.0015    0.0000   -0.0012    0.0012   -0.0005
          14    0.0119   -0.0073    0.0009   -0.0049    0.0004    0.0041    0.0019   -0.0096
          15    0.0144    0.0119    0.0226   -0.0010    0.0003    0.0121    0.0052   -0.0125
          16    0.0132    0.0005    0.0084    0.0037   -0.0002   -0.0012   -0.0034    0.0028
          17   -0.0287    0.0078   -0.0252   -0.0063    0.0002   -0.0193   -0.0041   -0.0135
          18    0.0024   -0.0018    0.0016   -0.0001    0.0000    0.0013    0.0004    0.0000
          19   -0.0011    0.0209   -0.0206   -0.0013   -0.0002   -0.0253   -0.0093   -0.0110
          20   -0.0133   -0.0244    0.0095   -0.0033    0.0003    0.0181    0.0069    0.0026
          21    0.0009    0.0035   -0.0019    0.0004   -0.0001   -0.0032   -0.0014   -0.0007
          22    0.0013    0.0014    0.0013    0.0051   -0.0008    0.0004   -0.0008    0.0063
          23    0.0023    0.0091    0.0114   -0.0042    0.0003    0.0052    0.0024   -0.0117
          24   -0.0007   -0.0036   -0.0019   -0.0154    0.0004    0.0000    0.0023   -0.0198
          25   -0.0006    0.0047    0.0043    0.0034   -0.0003    0.0012   -0.0003    0.0041
          26   -0.0030   -0.0055   -0.0091    0.0073   -0.0004   -0.0053   -0.0031    0.0171
          27   -0.0065   -0.0109   -0.0132   -0.0067    0.0001   -0.0053    0.0001   -0.0064
          28    0.0054   -0.0137   -0.0096   -0.0067    0.0002   -0.0025    0.0025   -0.0083
          29    0.0042   -0.0108   -0.0083   -0.0044    0.0001   -0.0028    0.0018   -0.0047
          30   -0.0061    0.0020   -0.0018    0.0022   -0.0001   -0.0016   -0.0015    0.0045
          31    0.0482   -0.0339   -0.0106   -0.0066   -0.0001   -0.0148    0.0218   -0.0076
          32   -0.0435   -0.0417   -0.0437   -0.0204    0.0009   -0.0080   -0.0010   -0.0213
          33   -0.0108   -0.0274   -0.0286   -0.0108    0.0003   -0.0133    0.0067   -0.0107
          34    0.0686    0.0140    0.0030   -0.0093    0.0015    0.0964   -0.0778    0.0093
          35   -0.0132   -0.0326    0.0576    0.0193   -0.0016   -0.0441    0.1399    0.0247
          36   -0.0241   -0.0218    0.0338    0.0166   -0.0018   -0.0779    0.1309    0.0097
          37    0.0599    0.0327    0.0033   -0.0014    0.0012    0.1021   -0.0904    0.0241
          38   -0.0060   -0.0248    0.0564    0.0207   -0.0017   -0.0456    0.1380    0.0259
          39    0.0219    0.0227   -0.0329   -0.0154    0.0018    0.0794   -0.1303   -0.0066
          40    0.0356   -0.0216    0.0627    0.0301   -0.0020   -0.0919   -0.0834   -0.0213
          41   -0.0675   -0.0931    0.0612    0.0080   -0.0001   -0.0006   -0.0656   -0.0088
          42    0.0115   -0.0379    0.0676    0.0304   -0.0020   -0.0958   -0.1006   -0.0256
          43    0.0351   -0.0312    0.0761    0.0357   -0.0024   -0.1112   -0.1027   -0.0269
          44   -0.0679   -0.0863    0.0567    0.0080    0.0000    0.0023   -0.0611   -0.0055
          45    0.0003    0.0374   -0.0563   -0.0240    0.0015    0.0742    0.0841    0.0205
          46   -0.0045   -0.0254   -0.0452    0.1937    0.0052    0.0114   -0.0014    0.0216
          47   -0.0011   -0.0021   -0.0134    0.1839    0.2101    0.0378    0.0197   -0.1050
          48    0.0048    0.0254    0.0352   -0.0361    0.1475    0.0193    0.0160   -0.0958
          49   -0.0001   -0.0053   -0.0063   -0.0141    0.3943   -0.0164   -0.0095    0.0594
          50   -0.0008   -0.0081   -0.0103   -0.0241   -0.0117   -0.0191   -0.0135    0.0806
          51    0.0007    0.0153    0.0190    0.0503    0.1426    0.0356    0.0257   -0.1519
          52    0.0006    0.0037    0.0124   -0.1166    0.0891   -0.0205   -0.0080    0.0401
          53   -0.0014   -0.0033   -0.0156    0.1883   -0.2144    0.0418    0.0199   -0.1088
          54    0.0063    0.0354    0.0551   -0.1491   -0.1077    0.0099    0.0135   -0.0914
          55    0.0226   -0.0120    0.0293    0.0075   -0.0002    0.0175   -0.0005    0.0133
          56    0.0001   -0.0349    0.0433    0.0056    0.0003    0.0455    0.0092    0.0220
          57    0.0024    0.0040   -0.0002    0.0015   -0.0001   -0.0025   -0.0014    0.0014
          58   -0.0037   -0.0001   -0.0009   -0.0046   -0.0027   -0.0009    0.0004   -0.0039
          59    0.0001    0.0071    0.0107   -0.0200    0.0006    0.0055    0.0045   -0.0286
          60    0.0026    0.0018    0.0011    0.0128   -0.0007    0.0000   -0.0010    0.0103
          61    0.0715   -0.0095    0.0404    0.0073   -0.0001    0.0402    0.0239    0.0231
          62   -0.0139   -0.0257    0.0095   -0.0038    0.0004    0.0195    0.0083    0.0026
[...]
 T-DIPOLE    0.0595        C  4 --  H 16          +20.6% ( 39.3%)    11.7%
 TRAVEL      0.1757        C  4 --  H 18          +20.6% ( 39.2%)    11.1%
 RED. MASS   0.4204        C  4 --  C  8           +5.1% ( 19.4%)     0.2%
 EFF. MASS   1.5637

 VIBRATION   46   46A       ATOM PAIR        ENERGY CONTRIBUTION    RADIAL
 FREQ.      1406.59        C  3 --  C  7          +17.3% ( 52.0%)    98.9%
 T-DIPOLE    0.0389        C  3 --  H 15          +14.7% ( 47.9%)     5.1%
 TRAVEL      0.0942        C  3 --  H 14          +14.5% ( 47.6%)     5.5%
 RED. MASS   0.7129        C  2 --  C  3          +12.4% ( 44.0%)     0.4%
 EFF. MASS   5.4080

 VIBRATION   47   47A       ATOM PAIR        ENERGY CONTRIBUTION    RADIAL
 FREQ.      1416.02        C  2 --  H 13          +22.9% ( 50.4%)     4.3%
 T-DIPOLE    0.0847        C  2 --  H 12          +21.9% ( 49.2%)     5.3%
 TRAVEL      0.1257        C  3 --  H 15          +12.4% ( 37.0%)     5.7%
 RED. MASS   0.3548        C  3 --  H 14          +12.3% ( 36.9%)     5.7%
 EFF. MASS   3.0121        C  2 --  C  3          +11.4% ( 35.5%)    99.6%

 VIBRATION   48   48A       ATOM PAIR        ENERGY CONTRIBUTION    RADIAL
 FREQ.      1421.11        C  4 --  H 17          +19.6% ( 57.5%)     7.0%
 T-DIPOLE    0.0183        C  4 --  H 18          +16.5% ( 52.8%)     1.8%
 TRAVEL      0.0909        C  4 --  H 16          +16.2% ( 52.3%)     1.7%
 RED. MASS   0.9102        C  4 --  C  8          +15.0% ( 50.3%)    92.7%
 EFF. MASS   5.7452

 VIBRATION   49   49A       ATOM PAIR        ENERGY CONTRIBUTION    RADIAL
 FREQ.      1469.29        C  1 --  C  5          +24.8% ( 76.8%)    92.5%
 T-DIPOLE    0.1657        C  5 --  C  9          +21.0% ( 70.7%)    82.3%
 TRAVEL      0.0639        C  5 --  C 10          +13.2% ( 56.1%)     0.0%
 RED. MASS   3.3590        C  1 --  C  6           +6.9% ( 40.5%)    45.7%
 EFF. MASS  11.2518

 VIBRATION   50   50A       ATOM PAIR        ENERGY CONTRIBUTION    RADIAL
 FREQ.      1826.75        C  6 --  C  7          +45.4% ( 99.8%)   100.0%
 T-DIPOLE    0.1417        C  3 --  C  7          +13.8% ( 55.1%)    25.6%
 TRAVEL      0.0557        C  1 --  C  6          +13.8% ( 55.0%)    24.3%
 RED. MASS   5.2955        C  7 --  H 21          +12.9% ( 53.1%)     9.6%
 EFF. MASS  11.8882        C  6 --  H 19          +12.8% ( 52.9%)    10.3%

 VIBRATION   51   51A       ATOM PAIR        ENERGY CONTRIBUTION    RADIAL
 FREQ.      1848.12        C  5 --  C 10          +37.3% ( 90.2%)   100.0%
 T-DIPOLE    0.1494        C  5 --  C  9          +13.5% ( 54.3%)     9.3%
 TRAVEL      0.0554        C  1 --  C  5          +13.4% ( 54.1%)    35.9%
 RED. MASS   3.8498        C 10 --  H 24           +9.0% ( 44.4%)    11.3%
 EFF. MASS  11.8705

 VIBRATION   52   52A       ATOM PAIR        ENERGY CONTRIBUTION    RADIAL
 FREQ.      1894.79        C  8 --  C  9          +35.5% ( 88.0%)    95.4%
 T-DIPOLE    0.5141        C  5 --  C  9          +17.7% ( 62.2%)    56.7%
 TRAVEL      0.0549        C  9 --  H 22          +12.0% ( 51.1%)     2.4%
 RED. MASS   3.9373        C  4 --  C  8          +10.6% ( 48.1%)    55.5%
 EFF. MASS  11.8094

 VIBRATION   53   53A       ATOM PAIR        ENERGY CONTRIBUTION    RADIAL
 FREQ.      2862.00        C  1 --  H 11          +96.6% ( 99.9%)   100.0%
 T-DIPOLE    0.0744        C  1 --  C  2           +1.1% ( 10.6%)     9.4%
 TRAVEL      0.1275        C  1 --  C  5           +1.1% ( 10.5%)     9.6%
 RED. MASS   0.9259        C  1 --  C  6           +1.1% ( 10.5%)     8.5%
 EFF. MASS   1.4494

 VIBRATION   54   54A       ATOM PAIR        ENERGY CONTRIBUTION    RADIAL
 FREQ.      2972.35        C  3 --  H 15          +37.8% ( 64.0%)    96.7%
 T-DIPOLE    0.0324        C  3 --  H 14          +35.1% ( 61.6%)    96.3%
 TRAVEL      0.1209        C  2 --  H 13          +15.0% ( 40.3%)    97.5%
 RED. MASS   0.3247        C  2 --  H 12           +9.7% ( 32.4%)    94.6%
 EFF. MASS   1.5522

 VIBRATION   55   55A       ATOM PAIR        ENERGY CONTRIBUTION    RADIAL
 FREQ.      2988.83        C  2 --  H 13          +45.8% ( 70.0%)    97.9%
 T-DIPOLE    0.1055        C  2 --  H 12          +27.4% ( 54.1%)    94.7%
 TRAVEL      0.1215        C  3 --  H 15          +12.8% ( 37.0%)    97.1%
 RED. MASS   0.3386        C  3 --  H 14          +11.8% ( 35.5%)    96.6%
 EFF. MASS   1.5291

 VIBRATION   56   56A       ATOM PAIR        ENERGY CONTRIBUTION    RADIAL
 FREQ.      3018.19        C  8 --  H 20          +96.1% ( 99.5%)   100.0%
 T-DIPOLE    0.3661        C  8 --  C  9           +1.5% ( 12.4%)    38.3%
 TRAVEL      0.1214        C  4 --  C  8           +1.4% ( 12.0%)    12.8%
 RED. MASS   0.9117        C  4 --  H 17           +0.6% (  7.8%)    97.4%
 EFF. MASS   1.5166

 VIBRATION   57   57A       ATOM PAIR        ENERGY CONTRIBUTION    RADIAL
 FREQ.      3025.55        C  9 --  H 22          +97.0% ( 99.9%)   100.0%
 T-DIPOLE    0.2429        C  8 --  C  9           +1.5% ( 12.5%)    38.7%
 TRAVEL      0.1213        C  5 --  C  9           +1.4% ( 11.9%)    13.9%
 RED. MASS   0.9276
 EFF. MASS   1.5152

 VIBRATION   58   58A       ATOM PAIR        ENERGY CONTRIBUTION    RADIAL
 FREQ.      3054.43        C  3 --  H 14          +49.9% ( 69.7%)    97.8%
 T-DIPOLE    0.0783        C  3 --  H 15          +45.7% ( 66.7%)    97.3%
 TRAVEL      0.1311        C  2 --  H 12           +1.8% ( 13.4%)    98.6%
 RED. MASS   0.4566        C  2 --  H 13           +1.1% ( 10.1%)    94.9%
 EFF. MASS   1.2840

 VIBRATION   59   59A       ATOM PAIR        ENERGY CONTRIBUTION    RADIAL
 FREQ.      3065.56        C  2 --  H 12          +60.5% ( 76.7%)    98.8%
 T-DIPOLE    0.0896        C  2 --  H 13          +35.2% ( 58.5%)    95.4%
 TRAVEL      0.1309        C  3 --  H 15           +1.5% ( 12.0%)    98.0%
 RED. MASS   0.4832        C  3 --  H 14           +1.3% ( 11.4%)    97.6%
 EFF. MASS   1.2836

 VIBRATION   60   60A       ATOM PAIR        ENERGY CONTRIBUTION    RADIAL
 FREQ.      3069.38        C  4 --  H 18          +50.0% ( 73.0%)    97.2%
 T-DIPOLE    0.0282        C  4 --  H 16          +48.1% ( 71.5%)    96.9%
 TRAVEL      0.1210        C  4 --  C  8           +1.0% ( 10.2%)     0.0%
 RED. MASS   0.5093        C  4 --  H 17           +0.9% ( 10.0%)     0.4%
 EFF. MASS   1.5013

 VIBRATION   61   61A       ATOM PAIR        ENERGY CONTRIBUTION    RADIAL
 FREQ.      3075.05        C  4 --  H 17          +63.4% ( 82.1%)    98.9%
 T-DIPOLE    0.0537        C  4 --  H 16          +18.3% ( 44.1%)    85.7%
 TRAVEL      0.1205        C  4 --  H 18          +16.4% ( 41.8%)    83.9%
 RED. MASS   0.4912        C  4 --  C  8           +1.0% ( 10.4%)     0.0%
 EFF. MASS   1.5090

 VIBRATION   62   62A       ATOM PAIR        ENERGY CONTRIBUTION    RADIAL
 FREQ.      3115.66        C  7 --  H 21          +51.0% ( 72.5%)   100.0%
 T-DIPOLE    0.3705        C  6 --  H 19          +46.4% ( 69.2%)   100.0%
 TRAVEL      0.1217        C  6 --  C  7           +1.1% ( 10.7%)     0.0%
 RED. MASS   0.4658        C  3 --  C  7           +0.8% (  8.8%)    27.6%
 EFF. MASS   1.4614

 VIBRATION   63   63A       ATOM PAIR        ENERGY CONTRIBUTION    RADIAL
 FREQ.      3134.60        C  6 --  H 19          +50.0% ( 72.1%)    99.9%
 T-DIPOLE    0.3567        C  7 --  H 21          +45.4% ( 68.6%)    99.9%
 TRAVEL      0.1142        C  6 --  C  7           +2.5% ( 16.0%)   100.0%
 RED. MASS   0.4665        C  1 --  C  6           +1.0% ( 10.1%)    18.2%
 EFF. MASS   1.6505

 VIBRATION   64   64A       ATOM PAIR        ENERGY CONTRIBUTION    RADIAL
 FREQ.      3138.36        C 10 --  H 23          +91.4% ( 97.4%)    99.9%
 T-DIPOLE    0.2380        C 10 --  H 24           +7.2% ( 27.3%)    72.8%
 TRAVEL      0.1178        C  5 --  C 10           +1.4% ( 11.9%)    21.4%
 RED. MASS   0.8492
 EFF. MASS   1.5475

 VIBRATION   65   65A       ATOM PAIR        ENERGY CONTRIBUTION    RADIAL
 FREQ.      3142.01        C 10 --  H 24          +92.5% ( 96.8%)    99.6%
 T-DIPOLE    0.3075        C 10 --  H 23           +6.1% ( 24.8%)    43.1%
 TRAVEL      0.1220        C  5 --  C 10           +1.4% ( 12.0%)    65.4%
 RED. MASS   0.8280
 EFF. MASS   1.4419

 VIBRATION   66   66A       ATOM PAIR        ENERGY CONTRIBUTION    RADIAL
 FREQ.      3168.75        C  4 --  H 17          +34.5% ( 56.5%)    97.2%
 T-DIPOLE    0.0711        C  4 --  H 16          +32.7% ( 55.1%)    97.1%
 TRAVEL      0.1367        C  4 --  H 18          +32.5% ( 54.9%)    97.0%
 RED. MASS   0.3272        C  4 --  C  8           +0.3% (  5.4%)   100.0%
 EFF. MASS   1.1392

 SYMMETRY NUMBER FOR POINT-GROUP C1  =  1


          SYSTEM IS A GROUND STATE


    NULL



          MOLECULE IS NOT LINEAR

          THERE ARE 66 GENUINE VIBRATIONS IN THIS SYSTEM
          THIS THERMODYNAMICS CALCULATION IS LIMITED TO
          MOLECULES WHICH HAVE NO INTERNAL ROTATIONS




                    CALCULATED THERMODYNAMIC PROPERTIES
                                          *
   TEMP. (K)   PARTITION FUNCTION   H.O.F.    ENTHALPY  HEAT CAPACITY ENTROPY
                                   KCAL/MOL   CAL/MOLE    CAL/K/MOL  CAL/K/MOL


 298.00  VIB.     0.1178D+04                  4800.3229    33.3553    30.1609
         ROT.     0.7046D+06                   888.2813     2.9808    29.7394
         INT.     0.8300D+09                  5688.6042    36.3361    59.9003
         TRA.     0.1503D+28                  1480.4688     4.9680    40.5931
         TOT.                       30.961    7169.0731    41.3041   100.4934

 200.00  VIB.     0.8326D+02                  2151.0687    21.1182    19.5428
         ROT.     0.3874D+06                   596.1620     2.9808    28.5507
         INT.     0.3226D+08                  2747.2307    24.0991    48.0935
         TRA.     0.8266D+27                   993.6033     4.9680    38.6119
         TOT.                       27.532    3740.8339    29.0671    86.7054

 210.00  VIB.     0.1091D+03                  2367.8072    22.2358    20.6000
         ROT.     0.4168D+06                   625.9700     2.9808    28.6961
         INT.     0.4548D+08                  2993.7772    25.2166    49.2961
         TRA.     0.8893D+27                  1043.2834     4.9680    38.8543
         TOT.                       27.829    4037.0607    30.1846    88.1505

 220.00  VIB.     0.1429D+03                  2595.9087    23.3906    21.6609
         ROT.     0.4470D+06                   655.7781     2.9808    28.8348
         INT.     0.6389D+08                  3251.6869    26.3714    50.4957
         TRA.     0.9536D+27                  1092.9636     4.9680    39.0854
         TOT.                       28.136    4344.6505    31.3395    89.5812

 230.00  VIB.     0.1872D+03                  2835.7381    24.5809    22.7268
         ROT.     0.4778D+06                   685.5862     2.9808    28.9673
         INT.     0.8944D+08                  3521.3243    27.5618    51.6941
         TRA.     0.1019D+28                  1142.6437     4.9680    39.3063
         TOT.                       28.456    4663.9681    32.5298    91.0004

 240.00  VIB.     0.2452D+03                  3087.6369    25.8040    23.7987
         ROT.     0.5093D+06                   715.3943     2.9808    29.0942
         INT.     0.1249D+09                  3803.0312    28.7848    52.8929
         TRA.     0.1087D+28                  1192.3239     4.9680    39.5177
         TOT.                       28.787    4995.3551    33.7528    92.4106

 250.00  VIB.     0.3211D+03                  3351.9163    27.0565    24.8774
         ROT.     0.5414D+06                   745.2024     2.9808    29.2159
         INT.     0.1739D+09                  4097.1188    30.0373    54.0932
         TRA.     0.1155D+28                  1242.0041     4.9680    39.7205
         TOT.                       29.131    5339.1228    35.0053    93.8137

 260.00  VIB.     0.4206D+03                  3628.8525    28.3347    25.9634
         ROT.     0.5742D+06                   775.0105     2.9808    29.3328
         INT.     0.2415D+09                  4403.8631    31.3155    55.2961
         TRA.     0.1225D+28                  1291.6842     4.9680    39.9154
         TOT.                       29.487    5695.5473    36.2835    95.2115

 270.00  VIB.     0.5512D+03                  3918.6827    29.6346    27.0570
         ROT.     0.6077D+06                   804.8186     2.9808    29.4453
         INT.     0.3350D+09                  4723.5013    32.6154    56.5023
         TRA.     0.1297D+28                  1341.3644     4.9680    40.1029
         TOT.                       29.857    6064.8657    37.5835    96.6052

 280.00  VIB.     0.7226D+03                  4221.6038    30.9522    28.1585
         ROT.     0.6418D+06                   834.6267     2.9808    29.5537
         INT.     0.4637D+09                  5056.2305    33.9330    57.7122
         TRA.     0.1369D+28                  1391.0445     4.9680    40.2835
         TOT.                       30.239    6447.2751    38.9010    97.9958

 290.00  VIB.     0.9477D+03                  4537.7718    32.2833    29.2679
         ROT.     0.6764D+06                   864.4348     2.9808    29.6583
         INT.     0.6411D+09                  5402.2066    35.2641    58.9262
         TRA.     0.1443D+28                  1440.7247     4.9680    40.4579
         TOT.                       30.635    6842.9313    40.2322    99.3840

 300.00  VIB.     0.1244D+04                  4867.3022    33.6240    30.3849
         ROT.     0.7117D+06                   894.2429     2.9808    29.7593
         INT.     0.8852D+09                  5761.5452    36.6048    60.1442
         TRA.     0.1518D+28                  1490.4049     4.9680    40.6263
         TOT.                       31.044    7251.9500    41.5729   100.7705

 310.00  VIB.     0.1633D+04                  5210.2718    34.9705    31.5094
         ROT.     0.7476D+06                   924.0510     2.9808    29.8571
         INT.     0.1221D+10                  6134.3228    37.9513    61.3665
         TRA.     0.1595D+28                  1540.0850     4.9680    40.7892
         TOT.                       31.466    7674.4079    42.9194   102.1557

 320.00  VIB.     0.2146D+04                  5566.7201    36.3192    32.6409
         ROT.     0.7841D+06                   953.8591     2.9808    29.9517
         INT.     0.1683D+10                  6520.5792    39.3000    62.5927
         TRA.     0.1673D+28                  1589.7652     4.9680    40.9469
         TOT.                       31.902    8110.3444    44.2680   103.5396

 330.00  VIB.     0.2823D+04                  5936.6522    37.6668    33.7792
         ROT.     0.8211D+06                   983.6672     2.9808    30.0434
         INT.     0.2318D+10                  6920.3194    40.6476    63.8226
         TRA.     0.1752D+28                  1639.4454     4.9680    41.0998
         TOT.                       32.351    8559.7648    45.6156   104.9224

 340.00  VIB.     0.3715D+04                  6320.0412    39.0101    34.9236
         ROT.     0.8587D+06                  1013.4753     2.9808    30.1324
         INT.     0.3190D+10                  7333.5165    41.9909    65.0560
         TRA.     0.1832D+28                  1689.1255     4.9680    41.2481
         TOT.                       32.814    9022.6421    46.9589   106.3041

 350.00  VIB.     0.4894D+04                  6716.8314    40.3465    36.0737
         ROT.     0.8969D+06                  1043.2834     2.9808    30.2188
         INT.     0.4389D+10                  7760.1148    43.3274    66.2925
         TRA.     0.1914D+28                  1738.8057     4.9680    41.3921
         TOT.                       33.291    9498.9205    48.2954   107.6847

 360.00  VIB.     0.6451D+04                  7126.9408    41.6736    37.2289
         ROT.     0.9356D+06                  1073.0915     2.9808    30.3028
         INT.     0.6036D+10                  8200.0323    44.6544    67.5317
         TRA.     0.1996D+28                  1788.4859     4.9680    41.5321
         TOT.                       33.780    9988.5182    49.6224   109.0638

 370.00  VIB.     0.8512D+04                  7550.2645    42.9891    38.3887
         ROT.     0.9749D+06                  1102.8996     2.9808    30.3845
         INT.     0.8298D+10                  8653.1641    45.9699    68.7732
         TRA.     0.2080D+28                  1838.1660     4.9680    41.6682
         TOT.                       34.283   10491.3302    50.9379   110.4414

 380.00  VIB.     0.1124D+05                  7986.6773    44.2911    39.5525
         ROT.     0.1015D+07                  1132.7077     2.9808    30.4640
         INT.     0.1140D+11                  9119.3850    47.2719    70.0164
         TRA.     0.2165D+28                  1887.8462     4.9680    41.8007
         TOT.                       34.799   11007.2312    52.2399   111.8171

 390.00  VIB.     0.1485D+05                  8436.0363    45.5781    40.7196
         ROT.     0.1055D+07                  1162.5158     2.9808    30.5414
         INT.     0.1567D+11                  9598.5521    48.5589    71.2610
         TRA.     0.2251D+28                  1937.5263     4.9680    41.9297
         TOT.                       35.328   11536.0785    53.5269   113.1908

 400.00  VIB.     0.1964D+05                  8898.1839    46.8486    41.8896
         ROT.     0.1096D+07                  1192.3239     2.9808    30.6169
         INT.     0.2152D+11                 10090.5078    49.8294    72.5065
         TRA.     0.2338D+28                  1987.2065     4.9680    42.0555
         TOT.                       35.869   12077.7143    54.7974   114.5620

   *: NOTE: HEATS OF FORMATION ARE RELATIVE TO THE
            ELEMENTS IN THEIR STANDARD STATE AT 298K
              (=  Standard Enthalpy of Formation).

            Hvib:  Zero-point energy is not included.
                   frequencies of less than zero cm-1 are not included.
            Hrot = (3/2)RT
            Htra = (3/2)RT + pV = (5/2)RT

            Heat capacity is Cp, not Cv

           For more information, see: HTTP://OpenMOPAC.net/Manual/thermochemistry.html


           FORCE CONSTANT IN CARTESIAN COORDINATES (Millidynes/A)

    ATOM   CHEMICAL       X               Y               Z
   NUMBER   SYMBOL  FORCE CONSTANT  FORCE CONSTANT  FORCE CONSTANT

      1       C        7.948646        9.269189        8.353875
      2       C        7.546157        8.400768        8.454686
      3       C        9.617371        7.554279        8.081858
      4       C        8.077123        8.384442        8.997156
      5       C        9.974848        8.224544        9.962631
      6       C       14.532604       10.247244        2.515717
      7       C       11.921032       13.064770        2.424868
      8       C        3.482462       13.076383       10.544759
      9       C        3.749307       13.096442       10.771176
     10       C        9.852034        7.526980        9.147673
     11       H        1.137898        0.994152        3.793517
     12       H        1.243785        1.690350        3.575896
     13       H        1.296928        1.630834        3.565277
     14       H        2.342527        0.877723        3.174060
     15       H        1.528984        0.969513        3.882317
     16       H        2.587552        1.804217        2.268536
     17       H        0.710689        4.770953        1.285748
     18       H        4.374480        1.619238        0.666674
     19       H        4.941940        1.072305        0.402173
     20       H        0.462445        4.224210        1.465998
     21       H        0.708826        5.329733        0.380854
     22       H        0.456616        4.260260        1.438429
     23       H        1.321529        0.514729        4.626563
     24       H        1.428869        2.234899        2.819453



 TOTAL CPU TIME:             3.63 SECONDS

 == MOPAC DONE ==
