 *******************************************************************************
 ** Site#: 14399           For non-commercial use only        Version 13.159M **
 *******************************************************************************
 ** Cite this work as: MOPAC2012, James J. P. Stewart, Stewart Computational  **
 ** Chemistry, Version 13.159M web: HTTP://OpenMOPAC.net  Days remaining:   6 **
 *******************************************************************************
 **                                                                           **
 **                                MOPAC2012                                  **
 **                                                                           **
 *******************************************************************************

                            PM3 CALCULATION RESULTS


 *******************************************************************************
 *  CALCULATION DONE:                                Mon Jun  2 14:11:42 2014  *
 *  PM3      - The PM3 Hamiltonian to be used
 *  PRECISE  - CRITERIA TO BE INCREASED BY 100 TIMES
 *  NOSYM    - POINT-GROUP SYMMETRY SET TO C1
 *  T=       - A TIME OF 172800.0 SECONDS REQUESTED
 *  DUMP=N   - RESTART FILE WRITTEN EVERY  7200.000 SECONDS
 *******************************************************************************
pm3  precise nosym
 InChI=1S/C8H14O/c1-4-7-6(3)9-8(7)5-2/h4,6-8H,1,5H2,2-3H3

   ATOM   CHEMICAL          X               Y               Z
  NUMBER   SYMBOL      (ANGSTROMS)     (ANGSTROMS)     (ANGSTROMS)
 
     1       C         -0.64450000  *  -0.01870000  *  -0.45280000  *
     2       C          0.20380000  *   0.10130000  *   0.85820000  *
     3       C         -1.18590000  *   1.32870000  *   0.01370000  *
     4       C          1.72120000  *   0.17970000  *   0.66440000  *
     5       C         -0.92640000  *   2.48740000  *  -0.94590000  *
     6       C          2.33410000  *  -1.15520000  *   0.25810000  *
     7       C         -1.64330000  *  -1.14410000  *  -0.44270000  *
     8       C         -1.26450000  *  -2.41630000  *  -0.57950000  *
     9       O         -0.34330000  *   1.40510000  *   1.14880000  *
    10       H         -0.04860000  *   0.02270000  *  -1.39570000  *
    11       H         -0.07970000  *  -0.61840000  *   1.66410000  *
    12       H         -2.25440000  *   1.32280000  *   0.33740000  *
    13       H          1.98210000  *   0.95080000  *  -0.09740000  *
    14       H          2.18140000  *   0.50200000  *   1.62680000  *
    15       H          2.08910000  *  -1.94910000  *   1.00000000  *
    16       H          3.44220000  *  -1.05970000  *   0.20480000  *
    17       H          1.97290000  *  -1.46890000  *  -0.74710000  *
    18       H         -1.51770000  *   2.34630000  *  -1.87880000  *
    19       H         -1.23880000  *   3.44610000  *  -0.47360000  *
    20       H          0.15240000  *   2.56590000  *  -1.21300000  *
    21       H         -2.70650000  *  -0.92840000  *  -0.34340000  *
    22       H         -2.00850000  *  -3.21060000  *  -0.57870000  *
    23       H         -0.21720000  *  -2.68920000  *  -0.69320000  *
 


          CARTESIAN COORDINATES 

    NO.       ATOM         X         Y         Z

     1         C       -0.6445   -0.0187   -0.4528
     2         C        0.2038    0.1013    0.8582
     3         C       -1.1859    1.3287    0.0137
     4         C        1.7212    0.1797    0.6644
     5         C       -0.9264    2.4874   -0.9459
     6         C        2.3341   -1.1552    0.2581
     7         C       -1.6433   -1.1441   -0.4427
     8         C       -1.2645   -2.4163   -0.5795
     9         O       -0.3433    1.4051    1.1488
    10         H       -0.0486    0.0227   -1.3957
    11         H       -0.0797   -0.6184    1.6641
    12         H       -2.2544    1.3228    0.3374
    13         H        1.9821    0.9508   -0.0974
    14         H        2.1814    0.5020    1.6268
    15         H        2.0891   -1.9491    1.0000
    16         H        3.4422   -1.0597    0.2048
    17         H        1.9729   -1.4689   -0.7471
    18         H       -1.5177    2.3463   -1.8788
    19         H       -1.2388    3.4461   -0.4736
    20         H        0.1524    2.5659   -1.2130
    21         H       -2.7065   -0.9284   -0.3434
    22         H       -2.0085   -3.2106   -0.5787
    23         H       -0.2172   -2.6892   -0.6932

  H: (PM3): J. J. P. STEWART, J. COMP. CHEM. 10, 209 (1989).
  C: (PM3): J. J. P. STEWART, J. COMP. CHEM. 10, 209 (1989).
  O: (PM3): J. J. P. STEWART, J. COMP. CHEM. 10, 209 (1989).

           Empirical Formula: C8 H14 O  =    23 atoms



      MOLECULAR POINT GROUP   :   C1  


      RHF CALCULATION, NO. OF DOUBLY OCCUPIED LEVELS =   26

      Geometry optimization using EF

          DIAGONAL MATRIX USED AS START HESSIAN

 CYCLE:     1 TIME:   0.009 TIME LEFT:  2.00D  GRAD.:   103.877 HEAT:-23.52509
 CYCLE:     2 TIME:   0.013 TIME LEFT:  2.00D  GRAD.:    93.357 HEAT:-25.06897
 CYCLE:     3 TIME:   0.013 TIME LEFT:  2.00D  GRAD.:    48.881 HEAT:-26.90568
 CYCLE:     4 TIME:   0.013 TIME LEFT:  2.00D  GRAD.:    46.450 HEAT:-27.24093
 CYCLE:     5 TIME:   0.007 TIME LEFT:  2.00D  GRAD.:    44.477 HEAT:-27.32837
 CYCLE:     6 TIME:   0.007 TIME LEFT:  2.00D  GRAD.:    28.573 HEAT:-27.72510
 CYCLE:     7 TIME:   0.013 TIME LEFT:  2.00D  GRAD.:    15.281 HEAT:-27.93310
 CYCLE:     8 TIME:   0.007 TIME LEFT:  2.00D  GRAD.:    24.964 HEAT:-27.95155
 CYCLE:     9 TIME:   0.007 TIME LEFT:  2.00D  GRAD.:    24.711 HEAT:-27.99950
 CYCLE:    10 TIME:   0.013 TIME LEFT:  2.00D  GRAD.:    10.376 HEAT:-28.15384
 CYCLE:    11 TIME:   0.012 TIME LEFT:  2.00D  GRAD.:     5.278 HEAT:-28.18347
 CYCLE:    12 TIME:   0.007 TIME LEFT:  2.00D  GRAD.:     5.797 HEAT:-28.20029
 CYCLE:    13 TIME:   0.017 TIME LEFT:  2.00D  GRAD.:     6.278 HEAT:-28.20795
 CYCLE:    14 TIME:   0.007 TIME LEFT:  2.00D  GRAD.:     6.364 HEAT:-28.21616
 CYCLE:    15 TIME:   0.009 TIME LEFT:  2.00D  GRAD.:     5.721 HEAT:-28.22525
 CYCLE:    16 TIME:   0.008 TIME LEFT:  2.00D  GRAD.:     5.542 HEAT:-28.23244
 CYCLE:    17 TIME:   0.007 TIME LEFT:  2.00D  GRAD.:     5.678 HEAT:-28.23807
 CYCLE:    18 TIME:   0.007 TIME LEFT:  2.00D  GRAD.:     4.772 HEAT:-28.24573
 CYCLE:    19 TIME:   0.007 TIME LEFT:  2.00D  GRAD.:     4.482 HEAT:-28.25246
 CYCLE:    20 TIME:   0.012 TIME LEFT:  2.00D  GRAD.:     3.914 HEAT:-28.25726
 CYCLE:    21 TIME:   0.007 TIME LEFT:  2.00D  GRAD.:     4.184 HEAT:-28.26079
 CYCLE:    22 TIME:   0.007 TIME LEFT:  2.00D  GRAD.:     2.547 HEAT:-28.27050
 CYCLE:    23 TIME:   0.007 TIME LEFT:  2.00D  GRAD.:     3.576 HEAT:-28.27956
 CYCLE:    24 TIME:   0.007 TIME LEFT:  2.00D  GRAD.:     4.226 HEAT:-28.28811
 CYCLE:    25 TIME:   0.007 TIME LEFT:  2.00D  GRAD.:     4.667 HEAT:-28.29453
 CYCLE:    26 TIME:   0.007 TIME LEFT:  2.00D  GRAD.:     2.869 HEAT:-28.30495
 CYCLE:    27 TIME:   0.007 TIME LEFT:  2.00D  GRAD.:     2.536 HEAT:-28.31150
 CYCLE:    28 TIME:   0.007 TIME LEFT:  2.00D  GRAD.:     1.860 HEAT:-28.31790
 CYCLE:    29 TIME:   0.007 TIME LEFT:  2.00D  GRAD.:     1.557 HEAT:-28.32184
 CYCLE:    30 TIME:   0.007 TIME LEFT:  2.00D  GRAD.:     1.443 HEAT:-28.32400
 CYCLE:    31 TIME:   0.007 TIME LEFT:  2.00D  GRAD.:     1.465 HEAT:-28.32701
 CYCLE:    32 TIME:   0.007 TIME LEFT:  2.00D  GRAD.:     1.645 HEAT:-28.33077
 CYCLE:    33 TIME:   0.007 TIME LEFT:  2.00D  GRAD.:     1.589 HEAT:-28.33372
 CYCLE:    34 TIME:   0.007 TIME LEFT:  2.00D  GRAD.:     1.263 HEAT:-28.33709
 CYCLE:    35 TIME:   0.007 TIME LEFT:  2.00D  GRAD.:     1.035 HEAT:-28.34060
 CYCLE:    36 TIME:   0.007 TIME LEFT:  2.00D  GRAD.:     1.143 HEAT:-28.34252
 CYCLE:    37 TIME:   0.007 TIME LEFT:  2.00D  GRAD.:     1.200 HEAT:-28.34564
 CYCLE:    38 TIME:   0.007 TIME LEFT:  2.00D  GRAD.:     1.178 HEAT:-28.34809
 CYCLE:    39 TIME:   0.007 TIME LEFT:  2.00D  GRAD.:     0.993 HEAT:-28.35007
 CYCLE:    40 TIME:   0.007 TIME LEFT:  2.00D  GRAD.:     0.925 HEAT:-28.35236
 CYCLE:    41 TIME:   0.007 TIME LEFT:  2.00D  GRAD.:     0.878 HEAT:-28.35491
 CYCLE:    42 TIME:   0.007 TIME LEFT:  2.00D  GRAD.:     0.671 HEAT:-28.35619
 CYCLE:    43 TIME:   0.007 TIME LEFT:  2.00D  GRAD.:     0.518 HEAT:-28.35707
 CYCLE:    44 TIME:   0.008 TIME LEFT:  2.00D  GRAD.:     0.516 HEAT:-28.35775
 CYCLE:    45 TIME:   0.007 TIME LEFT:  2.00D  GRAD.:     0.564 HEAT:-28.35851
 CYCLE:    46 TIME:   0.007 TIME LEFT:  2.00D  GRAD.:     0.567 HEAT:-28.35930
 CYCLE:    47 TIME:   0.007 TIME LEFT:  2.00D  GRAD.:     0.616 HEAT:-28.36057
 CYCLE:    48 TIME:   0.007 TIME LEFT:  2.00D  GRAD.:     0.642 HEAT:-28.36166
 CYCLE:    49 TIME:   0.007 TIME LEFT:  2.00D  GRAD.:     0.676 HEAT:-28.36287
 CYCLE:    50 TIME:   0.007 TIME LEFT:  2.00D  GRAD.:     0.744 HEAT:-28.36413
 CYCLE:    51 TIME:   0.007 TIME LEFT:  2.00D  GRAD.:     0.901 HEAT:-28.36572
 CYCLE:    52 TIME:   0.007 TIME LEFT:  2.00D  GRAD.:     0.965 HEAT:-28.36767
 CYCLE:    53 TIME:   0.007 TIME LEFT:  2.00D  GRAD.:     0.997 HEAT:-28.37026
 CYCLE:    54 TIME:   0.007 TIME LEFT:  2.00D  GRAD.:     0.969 HEAT:-28.37291
 CYCLE:    55 TIME:   0.007 TIME LEFT:  2.00D  GRAD.:     0.974 HEAT:-28.37594
 CYCLE:    56 TIME:   0.007 TIME LEFT:  2.00D  GRAD.:     1.207 HEAT:-28.38000
 CYCLE:    57 TIME:   0.007 TIME LEFT:  2.00D  GRAD.:     1.278 HEAT:-28.38445
 CYCLE:    58 TIME:   0.007 TIME LEFT:  2.00D  GRAD.:     4.022 HEAT:-28.38136
 CYCLE:    59 TIME:   0.007 TIME LEFT:  2.00D  GRAD.:     1.247 HEAT:-28.39093
 CYCLE:    60 TIME:   0.007 TIME LEFT:  2.00D  GRAD.:     0.936 HEAT:-28.39326
 CYCLE:    61 TIME:   0.007 TIME LEFT:  2.00D  GRAD.:     0.888 HEAT:-28.39584
 CYCLE:    62 TIME:   0.007 TIME LEFT:  2.00D  GRAD.:     0.815 HEAT:-28.39698
 CYCLE:    63 TIME:   0.008 TIME LEFT:  2.00D  GRAD.:     0.819 HEAT:-28.39943
 CYCLE:    64 TIME:   0.011 TIME LEFT:  2.00D  GRAD.:     0.985 HEAT:-28.40191
 CYCLE:    65 TIME:   0.007 TIME LEFT:  2.00D  GRAD.:     1.128 HEAT:-28.40597
 CYCLE:    66 TIME:   0.007 TIME LEFT:  2.00D  GRAD.:     1.200 HEAT:-28.40846
 CYCLE:    67 TIME:   0.007 TIME LEFT:  2.00D  GRAD.:     4.447 HEAT:-28.40497
 CYCLE:    68 TIME:   0.007 TIME LEFT:  2.00D  GRAD.:     2.553 HEAT:-28.41174
 CYCLE:    69 TIME:   0.007 TIME LEFT:  2.00D  GRAD.:     0.933 HEAT:-28.41320
 CYCLE:    70 TIME:   0.008 TIME LEFT:  2.00D  GRAD.:     0.976 HEAT:-28.41795
 CYCLE:    71 TIME:   0.007 TIME LEFT:  2.00D  GRAD.:     0.744 HEAT:-28.41965
 CYCLE:    72 TIME:   0.007 TIME LEFT:  2.00D  GRAD.:     1.142 HEAT:-28.42205
 CYCLE:    73 TIME:   0.007 TIME LEFT:  2.00D  GRAD.:     1.067 HEAT:-28.42461
 CYCLE:    74 TIME:   0.007 TIME LEFT:  2.00D  GRAD.:     1.372 HEAT:-28.42909
 CYCLE:    75 TIME:   0.007 TIME LEFT:  2.00D  GRAD.:     1.113 HEAT:-28.43123
 CYCLE:    76 TIME:   0.007 TIME LEFT:  2.00D  GRAD.:     1.097 HEAT:-28.43636
 CYCLE:    77 TIME:   0.007 TIME LEFT:  2.00D  GRAD.:     0.870 HEAT:-28.43817
 CYCLE:    78 TIME:   0.009 TIME LEFT:  2.00D  GRAD.:     0.936 HEAT:-28.44003
 CYCLE:    79 TIME:   0.008 TIME LEFT:  2.00D  GRAD.:     0.968 HEAT:-28.44289
 CYCLE:    80 TIME:   0.007 TIME LEFT:  2.00D  GRAD.:     0.882 HEAT:-28.44510
 CYCLE:    81 TIME:   0.007 TIME LEFT:  2.00D  GRAD.:     0.672 HEAT:-28.44676
 CYCLE:    82 TIME:   0.007 TIME LEFT:  2.00D  GRAD.:     0.612 HEAT:-28.44787
 CYCLE:    83 TIME:   0.007 TIME LEFT:  2.00D  GRAD.:     0.713 HEAT:-28.44865
 CYCLE:    84 TIME:   0.007 TIME LEFT:  2.00D  GRAD.:     0.622 HEAT:-28.44918
 CYCLE:    85 TIME:   0.007 TIME LEFT:  2.00D  GRAD.:     0.591 HEAT:-28.44972
 CYCLE:    86 TIME:   0.007 TIME LEFT:  2.00D  GRAD.:     0.722 HEAT:-28.45062
 CYCLE:    87 TIME:   0.007 TIME LEFT:  2.00D  GRAD.:     0.712 HEAT:-28.45137
 CYCLE:    88 TIME:   0.007 TIME LEFT:  2.00D  GRAD.:     0.844 HEAT:-28.45280
 CYCLE:    89 TIME:   0.007 TIME LEFT:  2.00D  GRAD.:     0.834 HEAT:-28.45366
 CYCLE:    90 TIME:   0.007 TIME LEFT:  2.00D  GRAD.:     1.203 HEAT:-28.45536
 CYCLE:    91 TIME:   0.007 TIME LEFT:  2.00D  GRAD.:     0.877 HEAT:-28.45608
 CYCLE:    92 TIME:   0.007 TIME LEFT:  2.00D  GRAD.:     0.485 HEAT:-28.45674
 CYCLE:    93 TIME:   0.007 TIME LEFT:  2.00D  GRAD.:     0.473 HEAT:-28.45757
 CYCLE:    94 TIME:   0.007 TIME LEFT:  2.00D  GRAD.:     0.593 HEAT:-28.45826
 CYCLE:    95 TIME:   0.007 TIME LEFT:  2.00D  GRAD.:     0.581 HEAT:-28.45894
 CYCLE:    96 TIME:   0.007 TIME LEFT:  2.00D  GRAD.:     0.608 HEAT:-28.45985
 CYCLE:    97 TIME:   0.007 TIME LEFT:  2.00D  GRAD.:     0.598 HEAT:-28.46033
 CYCLE:    98 TIME:   0.007 TIME LEFT:  2.00D  GRAD.:     0.733 HEAT:-28.46143
 CYCLE:    99 TIME:   0.007 TIME LEFT:  2.00D  GRAD.:     0.533 HEAT:-28.46182
 CYCLE:   100 TIME:   0.007 TIME LEFT:  2.00D  GRAD.:     0.524 HEAT:-28.46234
 CYCLE:   101 TIME:   0.007 TIME LEFT:  2.00D  GRAD.:     0.209 HEAT:-28.46267
 CYCLE:   102 TIME:   0.007 TIME LEFT:  2.00D  GRAD.:     0.125 HEAT:-28.46274
 CYCLE:   103 TIME:   0.007 TIME LEFT:  2.00D  GRAD.:     0.084 HEAT:-28.46277
 CYCLE:   104 TIME:   0.007 TIME LEFT:  2.00D  GRAD.:     0.073 HEAT:-28.46279
 CYCLE:   105 TIME:   0.007 TIME LEFT:  2.00D  GRAD.:     0.044 HEAT:-28.46280

     RMS GRADIENT =  0.04384  IS LESS THAN CUTOFF =  0.05000



 -------------------------------------------------------------------------------
pm3  precise nosym
 InChI=1S/C8H14O/c1-4-7-6(3)9-8(7)5-2/h4,6-8H,1,5H2,2-3H3



     GEOMETRY OPTIMISED USING EIGENVECTOR FOLLOWING (EF).     
     SCF FIELD WAS ACHIEVED                                   


                              PM3 CALCULATION
                                                       MOPAC2012 (Version: 13.159M)
                                                       Mon Jun  2 14:11:42 2014
                                                       No. of days left =   6




          FINAL HEAT OF FORMATION =        -28.46280 KCAL/MOL =    -119.08835 KJ/MOL


          TOTAL ENERGY            =      -1456.94003 EV
          ELECTRONIC ENERGY       =      -7648.91895 EV  POINT GROUP:     C1  
          CORE-CORE REPULSION     =       6191.97893 EV
          COSMO AREA              =        178.28 SQUARE ANGSTROMS
          COSMO VOLUME            =        183.83 CUBIC ANGSTROMS

          GRADIENT NORM           =          0.04384
          IONIZATION POTENTIAL    =         10.294645 EV
          HOMO LUMO ENERGIES (EV) =        -10.295  0.953
          NO. OF FILLED LEVELS    =         26
          MOLECULAR WEIGHT        =        126.198

          MOLECULAR DIMENSIONS (Angstroms)

            Atom       Atom       Distance
            H    19    H    16     6.54620
            H    22    H    14     5.94084
            H    18    H    11     3.34435


          SCF CALCULATIONS        =        114
          COMPUTATION TIME        =          0.813 SECONDS




   ATOM   CHEMICAL          X               Y               Z
  NUMBER   SYMBOL      (ANGSTROMS)     (ANGSTROMS)     (ANGSTROMS)
 
     1       C         -0.63295393  *  -0.00194357  *  -0.47788237  *
     2       C          0.22965713  *   0.05493147  *   0.81903411  *
     3       C         -1.23089706  *   1.35328176  *   0.00223783  *
     4       C          1.73236153  *   0.16365566  *   0.61926817  *
     5       C         -0.95858359  *   2.54072090  *  -0.88994137  *
     6       C          2.32569417  *  -1.17547616  *   0.24486617  *
     7       C         -1.59015873  *  -1.12528149  *  -0.59941709  *
     8       C         -1.24867894  *  -2.39178073  *  -0.39163352  *
     9       O         -0.37609719  *   1.32949180  *   1.18400691  *
    10       H         -0.04184071  *   0.07370735  *  -1.41686002  *
    11       H         -0.02526360  *  -0.71348420  *   1.58033261  *
    12       H         -2.29570822  *   1.31042384  *   0.31519134  *
    13       H          1.96426331  *   0.91925330  *  -0.15869452  *
    14       H          2.19693517  *   0.54399459  *   1.55039469  *
    15       H          2.13025578  *  -1.93588817  *   1.01330418  *
    16       H          3.41317587  *  -1.10700983  *   0.11717991  *
    17       H          1.90488436  *  -1.55256145  *  -0.69797473  *
    18       H         -1.54628433  *   2.46696445  *  -1.81344367  *
    19       H         -1.22813065  *   3.48113225  *  -0.39264726  *
    20       H          0.10108401  *   2.61096739  *  -1.17204620  *
    21       H         -2.61072109  *  -0.84982509  *  -0.89233527  *
    22       H         -1.94963646  *  -3.21355352  *  -0.49835217  *
    23       H         -0.24390370  *  -2.69150845  *  -0.09998341  *

           Empirical Formula: C8 H14 O  =    23 atoms



      MOLECULAR POINT GROUP   :   C1  


                  EIGENVALUES  
 -41.76997 -34.52076 -33.57381 -30.94032 -26.83965 -24.39451 -21.06187 -20.76007
 -19.32652 -17.49746 -16.88657 -16.33285 -15.48658 -15.36883 -14.54212 -14.13802
 -14.06400 -13.53158 -13.23064 -12.72121 -12.48759 -12.26237 -12.02249 -11.39330
 -10.71598 -10.29464   0.95298   2.71027   2.89581   3.03126   3.37574   3.56869
   3.68318   3.75544   3.79726   3.87647   3.99447   4.02679   4.12063   4.27031
   4.28998   4.37400   4.67664   4.71500   4.82273   4.96178   5.15206   5.18780
   5.50383   5.66168


              NET ATOMIC CHARGES AND DIPOLE CONTRIBUTIONS

  ATOM NO.   TYPE          CHARGE      No. of ELECS.   s-Pop       p-Pop       
    1          C          -0.123408        4.1234     1.19555     2.92785
    2          C           0.069776        3.9302     1.19077     2.73945
    3          C           0.071575        3.9284     1.18765     2.74077
    4          C          -0.116335        4.1163     1.16114     2.95519
    5          C          -0.128586        4.1286     1.14118     2.98741
    6          C          -0.109399        4.1094     1.13759     2.97181
    7          C          -0.125860        4.1259     1.19042     2.93544
    8          C          -0.164563        4.1646     1.18254     2.98202
    9          O          -0.270989        6.2710     1.88431     4.38668
   10          H           0.095016        0.9050     0.90498
   11          H           0.074075        0.9259     0.92593
   12          H           0.069371        0.9306     0.93063
   13          H           0.058847        0.9412     0.94115
   14          H           0.063626        0.9364     0.93637
   15          H           0.039428        0.9606     0.96057
   16          H           0.041102        0.9589     0.95890
   17          H           0.039343        0.9607     0.96066
   18          H           0.045175        0.9548     0.95482
   19          H           0.052268        0.9477     0.94773
   20          H           0.049162        0.9508     0.95084
   21          H           0.101699        0.8983     0.89830
   22          H           0.082879        0.9171     0.91712
   23          H           0.085799        0.9142     0.91420
 DIPOLE           X         Y         Z       TOTAL
 POINT-CHG.    -0.032    -0.732    -1.147     1.361
 HYBRID         0.001    -0.127    -0.239     0.271
 SUM           -0.032    -0.859    -1.386     1.631


          ATOMIC ORBITAL ELECTRON POPULATIONS

    Atom      s        px        py        pz   
    1  C   1.19555   0.97832   0.95463   0.99490
    2  C   1.19077   0.92246   0.88324   0.93375
    3  C   1.18765   0.94873   0.92652   0.86552
    4  C   1.16114   0.95268   0.97559   1.02693
    5  C   1.14118   1.01712   0.98076   0.98953
    6  C   1.13759   1.00074   0.96412   1.00695
    7  C   1.19042   0.98285   0.95014   1.00244
    8  C   1.18254   1.01265   0.95939   1.00997
    9  O   1.88431   1.57464   1.39420   1.41783
   10  H   0.90498
   11  H   0.92593
   12  H   0.93063
   13  H   0.94115
   14  H   0.93637
   15  H   0.96057
   16  H   0.95890
   17  H   0.96066
   18  H   0.95482
   19  H   0.94773
   20  H   0.95084
   21  H   0.89830
   22  H   0.91712
   23  H   0.91420
 *******************************************************************************
 ** Site#: 14399           For non-commercial use only        Version 13.159M **
 *******************************************************************************
 ** Cite this work as: MOPAC2012, James J. P. Stewart, Stewart Computational  **
 ** Chemistry, Version 13.159M web: HTTP://OpenMOPAC.net  Days remaining:   6 **
 *******************************************************************************
 **                                                                           **
 **                                MOPAC2012                                  **
 **                                                                           **
 *******************************************************************************

                            PM3 CALCULATION RESULTS


 *******************************************************************************
 *  CALCULATION DONE:                                Mon Jun  2 14:11:42 2014  *
 *  PM3      - The PM3 Hamiltonian to be used
 *  OLDGEO   - PREVIOUS GEOMETRY TO BE USED
 *  PRECISE  - CRITERIA TO BE INCREASED BY 100 TIMES
 *  NOSYM    - POINT-GROUP SYMMETRY SET TO C1
 *  T=       - A TIME OF 172800.0 SECONDS REQUESTED
 *  DUMP=N   - RESTART FILE WRITTEN EVERY  7200.000 SECONDS
 *  THERMO   - THERMODYNAMIC QUANTITIES TO BE CALCULATED
 *******************************************************************************
oldgeo thermo nosym precise  pm3

   ATOM   CHEMICAL          X               Y               Z
  NUMBER   SYMBOL      (ANGSTROMS)     (ANGSTROMS)     (ANGSTROMS)
 
     1       C         -0.63295393  *  -0.00194357  *  -0.47788237  *
     2       C          0.22965713  *   0.05493147  *   0.81903411  *
     3       C         -1.23089706  *   1.35328176  *   0.00223783  *
     4       C          1.73236153  *   0.16365566  *   0.61926817  *
     5       C         -0.95858359  *   2.54072090  *  -0.88994137  *
     6       C          2.32569417  *  -1.17547616  *   0.24486617  *
     7       C         -1.59015873  *  -1.12528149  *  -0.59941709  *
     8       C         -1.24867894  *  -2.39178073  *  -0.39163352  *
     9       O         -0.37609719  *   1.32949180  *   1.18400691  *
    10       H         -0.04184071  *   0.07370735  *  -1.41686002  *
    11       H         -0.02526360  *  -0.71348420  *   1.58033261  *
    12       H         -2.29570822  *   1.31042384  *   0.31519134  *
    13       H          1.96426331  *   0.91925330  *  -0.15869452  *
    14       H          2.19693517  *   0.54399459  *   1.55039469  *
    15       H          2.13025578  *  -1.93588817  *   1.01330418  *
    16       H          3.41317587  *  -1.10700983  *   0.11717991  *
    17       H          1.90488436  *  -1.55256145  *  -0.69797473  *
    18       H         -1.54628433  *   2.46696445  *  -1.81344367  *
    19       H         -1.22813065  *   3.48113225  *  -0.39264726  *
    20       H          0.10108401  *   2.61096739  *  -1.17204620  *
    21       H         -2.61072109  *  -0.84982509  *  -0.89233527  *
    22       H         -1.94963646  *  -3.21355352  *  -0.49835217  *
    23       H         -0.24390370  *  -2.69150845  *  -0.09998341  *
 


          CARTESIAN COORDINATES 

    NO.       ATOM         X         Y         Z

     1         C       -0.6330   -0.0019   -0.4779
     2         C        0.2297    0.0549    0.8190
     3         C       -1.2309    1.3533    0.0022
     4         C        1.7324    0.1637    0.6193
     5         C       -0.9586    2.5407   -0.8899
     6         C        2.3257   -1.1755    0.2449
     7         C       -1.5902   -1.1253   -0.5994
     8         C       -1.2487   -2.3918   -0.3916
     9         O       -0.3761    1.3295    1.1840
    10         H       -0.0418    0.0737   -1.4169
    11         H       -0.0253   -0.7135    1.5803
    12         H       -2.2957    1.3104    0.3152
    13         H        1.9643    0.9193   -0.1587
    14         H        2.1969    0.5440    1.5504
    15         H        2.1303   -1.9359    1.0133
    16         H        3.4132   -1.1070    0.1172
    17         H        1.9049   -1.5526   -0.6980
    18         H       -1.5463    2.4670   -1.8134
    19         H       -1.2281    3.4811   -0.3926
    20         H        0.1011    2.6110   -1.1720
    21         H       -2.6107   -0.8498   -0.8923
    22         H       -1.9496   -3.2136   -0.4984
    23         H       -0.2439   -2.6915   -0.1000

  H: (PM3): J. J. P. STEWART, J. COMP. CHEM. 10, 209 (1989).
  C: (PM3): J. J. P. STEWART, J. COMP. CHEM. 10, 209 (1989).
  O: (PM3): J. J. P. STEWART, J. COMP. CHEM. 10, 209 (1989).

           Empirical Formula: C8 H14 O  =    23 atoms



      MOLECULAR POINT GROUP   :   C1  


      RHF CALCULATION, NO. OF DOUBLY OCCUPIED LEVELS =   26



          HEAT OF FORMATION =     -28.462800 KCALS/MOLE


          INTERNAL COORDINATE DERIVATIVES

   NUMBER  ATOM       BOND         ANGLE      DIHEDRAL

     1       C      0.002023    -0.007287    -0.002995
     2       C      0.003279    -0.001342    -0.004341
     3       C     -0.000094    -0.005540    -0.003318
     4       C      0.006999    -0.004454    -0.002461
     5       C     -0.001893     0.000233     0.001727
     6       C      0.004245    -0.003448     0.002594
     7       C     -0.002897     0.000607     0.005261
     8       C     -0.011000     0.005797     0.006509
     9       O     -0.003134    -0.000029     0.002713
    10       H     -0.008989     0.006903     0.007750
    11       H      0.010661     0.003994    -0.012098
    12       H      0.006224    -0.013051    -0.003617
    13       H     -0.004605     0.004552     0.010995
    14       H     -0.000651    -0.002664     0.001855
    15       H     -0.002389    -0.000108    -0.003562
    16       H     -0.003995     0.008435     0.001911
    17       H      0.006113    -0.001628     0.003933
    18       H      0.006198    -0.001965    -0.011630
    19       H     -0.006429     0.001958     0.003818
    20       H      0.000671     0.006990     0.001186
    21       H     -0.001421     0.003998    -0.002567
    22       H      0.000400    -0.003321     0.004218
    23       H      0.000685     0.001371    -0.007883


          GRADIENT NORM =   0.04404


          TIME FOR SCF CALCULATION =    0.00

          TIME FOR DERIVATIVES     =    0.00

          MOLECULAR WEIGHT =  126.20



          ROTATIONAL CONSTANTS IN CM(-1)

          A =    0.06039538   B =    0.04791400   C =    0.03158565



           PRINCIPAL MOMENTS OF INERTIA IN UNITS OF 10**(-40)*GRAM-CM**2

          A =      463.4920   B =      584.2295   C =      886.2498


          ORIENTATION OF MOLECULE IN FORCE CALCULATION

    NO.       ATOM         X         Y         Z

     1          C      -0.7155   -0.0290    0.1190
     2          C       0.8431   -0.0290    0.1190
     3          C      -0.5975    1.5236    0.1190
     4          C       1.5125   -0.6255   -1.1082
     5          C      -1.1459    2.2210   -1.1030
     6          C       1.4805   -2.1362   -1.0603
     7          C      -1.3874   -0.6274    1.2952
     8          C      -1.0718   -1.8241    1.7769
     9          O       0.8580    1.4284    0.1070
    10          H      -1.1670   -0.4467   -0.8076
    11          H       1.3074   -0.4015    1.0574
    12          H      -0.9280    2.0182    1.0570
    13          H       1.0211   -0.2585   -2.0322
    14          H       2.5583   -0.2640   -1.1645
    15          H       1.9840   -2.5253   -0.1647
    16          H       1.9786   -2.5726   -1.9349
    17          H       0.4493   -2.5164   -1.0427
    18          H      -2.2422    2.1807   -1.1056
    19          H      -0.8469    3.2767   -1.1253
    20          H      -0.7916    1.7601   -2.0354
    21          H      -2.1859   -0.0238    1.7438
    22          H      -1.5785   -2.2659    2.6290
    23          H      -0.2839   -2.4424    1.3508


    FIRST DERIVATIVES WILL BE USED IN THE CALCULATION OF SECOND DERIVATIVES

          ESTIMATED TIME TO COMPLETE CALCULATION =        2.62 SECONDS

    FOR POINT-GROUP C1   THERE ARE   1 UNIQUE SYMMETRY FUNCTIONS.

 STEP:   1 TIME =     0.03 SECS, INTEGRAL =      0.03 TIME LEFT: 172799.96
 STEP:   2 TIME =     0.03 SECS, INTEGRAL =      0.06 TIME LEFT: 172799.93
 STEP:   3 TIME =     0.03 SECS, INTEGRAL =      0.09 TIME LEFT: 172799.90
 STEP:   4 TIME =     0.03 SECS, INTEGRAL =      0.12 TIME LEFT: 172799.87
 STEP:   5 TIME =     0.03 SECS, INTEGRAL =      0.15 TIME LEFT: 172799.84
 STEP:   6 TIME =     0.03 SECS, INTEGRAL =      0.18 TIME LEFT: 172799.81
 STEP:   7 TIME =     0.03 SECS, INTEGRAL =      0.21 TIME LEFT: 172799.78
 STEP:   8 TIME =     0.03 SECS, INTEGRAL =      0.25 TIME LEFT: 172799.74
 STEP:   9 TIME =     0.03 SECS, INTEGRAL =      0.28 TIME LEFT: 172799.71
 STEP:  10 TIME =     0.03 SECS, INTEGRAL =      0.31 TIME LEFT: 172799.68
 STEP:  11 TIME =     0.03 SECS, INTEGRAL =      0.34 TIME LEFT: 172799.65
 STEP:  12 TIME =     0.03 SECS, INTEGRAL =      0.37 TIME LEFT: 172799.62
 STEP:  13 TIME =     0.03 SECS, INTEGRAL =      0.40 TIME LEFT: 172799.59
 STEP:  14 TIME =     0.03 SECS, INTEGRAL =      0.43 TIME LEFT: 172799.56
 STEP:  15 TIME =     0.03 SECS, INTEGRAL =      0.46 TIME LEFT: 172799.53
 STEP:  16 TIME =     0.03 SECS, INTEGRAL =      0.49 TIME LEFT: 172799.50
 STEP:  17 TIME =     0.03 SECS, INTEGRAL =      0.52 TIME LEFT: 172799.47
 STEP:  18 TIME =     0.03 SECS, INTEGRAL =      0.55 TIME LEFT: 172799.44
 STEP:  19 TIME =     0.04 SECS, INTEGRAL =      0.59 TIME LEFT: 172799.40
 STEP:  20 TIME =     0.03 SECS, INTEGRAL =      0.62 TIME LEFT: 172799.37
 STEP:  21 TIME =     0.03 SECS, INTEGRAL =      0.65 TIME LEFT: 172799.34
 STEP:  22 TIME =     0.04 SECS, INTEGRAL =      0.69 TIME LEFT: 172799.30
 STEP:  23 TIME =     0.03 SECS, INTEGRAL =      0.72 TIME LEFT: 172799.27
 STEP:  24 TIME =     0.03 SECS, INTEGRAL =      0.75 TIME LEFT: 172799.24
 STEP:  25 TIME =     0.03 SECS, INTEGRAL =      0.78 TIME LEFT: 172799.21
 STEP:  26 TIME =     0.03 SECS, INTEGRAL =      0.81 TIME LEFT: 172799.18
 STEP:  27 TIME =     0.03 SECS, INTEGRAL =      0.84 TIME LEFT: 172799.15
 STEP:  28 TIME =     0.03 SECS, INTEGRAL =      0.88 TIME LEFT: 172799.11
 STEP:  29 TIME =     0.03 SECS, INTEGRAL =      0.91 TIME LEFT: 172799.08
 STEP:  30 TIME =     0.03 SECS, INTEGRAL =      0.94 TIME LEFT: 172799.05
 STEP:  31 TIME =     0.03 SECS, INTEGRAL =      0.97 TIME LEFT: 172799.02
 STEP:  32 TIME =     0.03 SECS, INTEGRAL =      1.00 TIME LEFT: 172798.99
 STEP:  33 TIME =     0.03 SECS, INTEGRAL =      1.03 TIME LEFT: 172798.96
 STEP:  34 TIME =     0.03 SECS, INTEGRAL =      1.06 TIME LEFT: 172798.93
 STEP:  35 TIME =     0.03 SECS, INTEGRAL =      1.09 TIME LEFT: 172798.90
 STEP:  36 TIME =     0.03 SECS, INTEGRAL =      1.12 TIME LEFT: 172798.87
 STEP:  37 TIME =     0.04 SECS, INTEGRAL =      1.15 TIME LEFT: 172798.84
 STEP:  38 TIME =     0.03 SECS, INTEGRAL =      1.19 TIME LEFT: 172798.80
 STEP:  39 TIME =     0.03 SECS, INTEGRAL =      1.22 TIME LEFT: 172798.77
 STEP:  40 TIME =     0.03 SECS, INTEGRAL =      1.25 TIME LEFT: 172798.74
 STEP:  41 TIME =     0.03 SECS, INTEGRAL =      1.28 TIME LEFT: 172798.71
 STEP:  42 TIME =     0.03 SECS, INTEGRAL =      1.31 TIME LEFT: 172798.68
 STEP:  43 TIME =     0.03 SECS, INTEGRAL =      1.34 TIME LEFT: 172798.65
 STEP:  44 TIME =     0.03 SECS, INTEGRAL =      1.37 TIME LEFT: 172798.62
 STEP:  45 TIME =     0.03 SECS, INTEGRAL =      1.40 TIME LEFT: 172798.59
 STEP:  46 TIME =     0.03 SECS, INTEGRAL =      1.43 TIME LEFT: 172798.56
 STEP:  47 TIME =     0.03 SECS, INTEGRAL =      1.46 TIME LEFT: 172798.53
 STEP:  48 TIME =     0.03 SECS, INTEGRAL =      1.49 TIME LEFT: 172798.50
 STEP:  49 TIME =     0.03 SECS, INTEGRAL =      1.52 TIME LEFT: 172798.47
 STEP:  50 TIME =     0.03 SECS, INTEGRAL =      1.55 TIME LEFT: 172798.44
 STEP:  51 TIME =     0.03 SECS, INTEGRAL =      1.58 TIME LEFT: 172798.41
 STEP:  52 TIME =     0.03 SECS, INTEGRAL =      1.61 TIME LEFT: 172798.38
 STEP:  53 TIME =     0.03 SECS, INTEGRAL =      1.64 TIME LEFT: 172798.35
 STEP:  54 TIME =     0.03 SECS, INTEGRAL =      1.67 TIME LEFT: 172798.32
 STEP:  55 TIME =     0.03 SECS, INTEGRAL =      1.70 TIME LEFT: 172798.29
 STEP:  56 TIME =     0.03 SECS, INTEGRAL =      1.73 TIME LEFT: 172798.26
 STEP:  57 TIME =     0.03 SECS, INTEGRAL =      1.76 TIME LEFT: 172798.23
 STEP:  58 TIME =     0.03 SECS, INTEGRAL =      1.79 TIME LEFT: 172798.20
 STEP:  59 TIME =     0.03 SECS, INTEGRAL =      1.82 TIME LEFT: 172798.17
 STEP:  60 TIME =     0.03 SECS, INTEGRAL =      1.85 TIME LEFT: 172798.14
 STEP:  61 TIME =     0.03 SECS, INTEGRAL =      1.88 TIME LEFT: 172798.11
 STEP:  62 TIME =     0.03 SECS, INTEGRAL =      1.91 TIME LEFT: 172798.08
 STEP:  63 TIME =     0.03 SECS, INTEGRAL =      1.94 TIME LEFT: 172798.05
 STEP:  64 TIME =     0.03 SECS, INTEGRAL =      1.97 TIME LEFT: 172798.02
 STEP:  65 TIME =     0.03 SECS, INTEGRAL =      2.00 TIME LEFT: 172797.99
 STEP:  66 TIME =     0.03 SECS, INTEGRAL =      2.03 TIME LEFT: 172797.96
 STEP:  67 TIME =     0.03 SECS, INTEGRAL =      2.07 TIME LEFT: 172797.93
 STEP:  68 TIME =     0.04 SECS, INTEGRAL =      2.10 TIME LEFT: 172797.89
 STEP:  69 TIME =     0.03 SECS, INTEGRAL =      2.13 TIME LEFT: 172797.86

(To convert to Hartree/Bohr^2, multiply by (10^(-21) x N x a0^2)/(4.184 x 627.51) = 0.0642)


           FORCE MATRIX IN MILLIDYNES/ANGSTROM


                  C  1       C  2       C  3       C  4       C  5       C  6
 ------------------------------------------------------------------------------
     C    1  14.771682
     C    2   3.090925  14.444082
     C    3   3.160466   2.291813  14.518716
     C    4   0.503251   4.117932   0.069561  14.442583
     C    5   0.520024   0.071595   4.443804   0.007433  14.482583
     C    6   0.027913   0.658597   0.012487   4.479369   0.001636  14.368089
     C    7   5.141188   0.534996   0.546573   0.037611   0.039112   0.002465
     C    8   0.849231   0.045185   0.049397   0.004844   0.008605   0.012213
     O    9   2.080808   4.052870   4.015981   0.707517   0.728583   0.065101
     H   10   4.368232   0.437560   0.436813   0.024722   0.025939   0.007362
     H   11   0.423661   4.358077   0.057205   0.426404   0.012845   0.026659
     H   12   0.424043   0.058126   4.375148   0.011975   0.421916   0.002484
     H   13   0.021393   0.460949   0.006870   4.438025   0.004651   0.437945
     H   14   0.046118   0.441957   0.006836   4.479718   0.001484   0.440080
     H   15   0.001936   0.030111   0.001036   0.463408   0.000265   4.711532
     H   16   0.001831   0.050017   0.002825   0.452755   0.000512   4.765707
     H   17   0.005710   0.023889   0.001209   0.462243   0.000601   4.691423
     H   18   0.010325   0.010337   0.436624   0.001104   4.762333   0.000576
     H   19   0.046977   0.007346   0.461201   0.001564   4.764686   0.000326
     H   20   0.019610   0.006828   0.482000   0.005030   4.716389   0.000521
     H   21   0.436039   0.034446   0.033475   0.005118   0.002884   0.000487
     H   22   0.138149   0.008412   0.009746   0.000959   0.001654   0.001261
     H   23   0.102709   0.018898   0.005020   0.004252   0.001529   0.005752


                  C  7       C  8       O  9       H 10       H 11       H 12
 ------------------------------------------------------------------------------
     C    7  18.272894
     C    8  11.048732  17.993747
     O    9   0.058892   0.012083   8.888608
     H   10   0.393270   0.024640   0.041347   4.868119
     H   11   0.017151   0.009767   0.338458   0.030282   4.759570
     H   12   0.023275   0.002524   0.340145   0.030989   0.002168   4.776775
     H   13   0.001861   0.000813   0.030453   0.023402   0.042076   0.000772
     H   14   0.006382   0.000567   0.032384   0.003288   0.023073   0.001158
     H   15   0.000642   0.003647   0.003764   0.000582   0.020216   0.000217
     H   16   0.000471   0.001124   0.011794   0.000654   0.001523   0.000541
     H   17   0.002015   0.006771   0.003267   0.009061   0.001681   0.000354
     H   18   0.001618   0.000782   0.058217   0.004291   0.002216   0.025804
     H   19   0.006619   0.001618   0.019992   0.003117   0.001180   0.026548
     H   20   0.001702   0.001071   0.028778   0.019612   0.000755   0.044190
     H   21   4.786827   0.457192   0.004493   0.014440   0.002489   0.024397
     H   22   0.461903   5.118791   0.003559   0.015602   0.000888   0.000538
     H   23   0.493500   5.021793   0.004948   0.012387   0.012275   0.000651


                  H 13       H 14       H 15       H 16       H 17       H 18
 ------------------------------------------------------------------------------
     H   13   5.056891
     H   14   0.570769   5.090519
     H   15   0.048065   0.023606   5.453892
     H   16   0.029078   0.029282   0.570703   5.495050
     H   17   0.024416   0.048666   0.578598   0.568720   5.430884
     H   18   0.000369   0.000323   0.000105   0.000180   0.000107   5.477394
     H   19   0.000339   0.000424   0.000109   0.000079   0.000196   0.563350
     H   20   0.010308   0.000320   0.000185   0.000142   0.000191   0.562815
     H   21   0.000533   0.001070   0.000172   0.000180   0.000187   0.000763
     H   22   0.000277   0.000339   0.000384   0.000396   0.000423   0.000176
     H   23   0.000595   0.000678   0.007262   0.001011   0.013215   0.000258


                  H 19       H 20       H 21       H 22       H 23
 ------------------------------------------------------------------
     H   19   5.489492
     H   20   0.572813   5.448675
     H   21   0.000564   0.000620   5.151350
     H   22   0.000392   0.000175   0.082083   5.497792
     H   23   0.000348   0.000250   0.121651   0.411686   5.401886


          HEAT OF FORMATION =     -28.462800 KCALS/MOLE

          ZERO POINT ENERGY     126.005 KCAL/MOL


           NORMAL COORDINATE ANALYSIS (Total motion = 1 Angstrom)


   Root No.       1         2         3         4         5         6         7         8

                 1 A       2 A       3 A       4 A       5 A       6 A       7 A       8 A   

                  69.3      73.0      87.4     148.0     161.9     181.0     240.7     291.5
  
           1   -0.0075   -0.0110   -0.0086   -0.0053   -0.0171    0.0115   -0.0194    0.0134
           2    0.0068   -0.0076   -0.0037   -0.0021    0.0119    0.0011   -0.0053   -0.0262
           3   -0.0056   -0.0219    0.0098    0.0002    0.0000    0.0000   -0.0138   -0.0183
           4   -0.0075   -0.0113   -0.0081   -0.0051   -0.0180    0.0112   -0.0182    0.0134
           5   -0.0066   -0.0144   -0.0108    0.0004    0.0027    0.0114   -0.0113    0.0081
           6   -0.0171   -0.0039    0.0006    0.0033   -0.0012    0.0072   -0.0010   -0.0176
           7    0.0059   -0.0039   -0.0010   -0.0072   -0.0076    0.0017   -0.0157   -0.0147
           8    0.0060   -0.0077   -0.0040   -0.0014    0.0116    0.0016   -0.0044   -0.0209
           9    0.0092    0.0037   -0.0014   -0.0040   -0.0010   -0.0005   -0.0124   -0.0086
          10   -0.0163   -0.0009   -0.0218    0.0003   -0.0336   -0.0010    0.0247    0.0031
          11   -0.0168   -0.0006    0.0152    0.0042   -0.0048    0.0019   -0.0085    0.0117
          12   -0.0167   -0.0049   -0.0204    0.0045   -0.0052    0.0052    0.0219   -0.0249
          13   -0.0146    0.0149    0.0270    0.0086    0.0314   -0.0002    0.0019    0.0153
          14    0.0294    0.0166   -0.0174    0.0042    0.0107   -0.0063    0.0311    0.0234
          15    0.0322    0.0093   -0.0222   -0.0083   -0.0204   -0.0045    0.0000    0.0040
          16    0.0515    0.0036    0.0339    0.0004   -0.0116   -0.0242    0.0098   -0.0153
          17   -0.0167   -0.0012    0.0143    0.0041   -0.0050    0.0026   -0.0091    0.0128
          18    0.0333   -0.0161   -0.0261   -0.0010    0.0297    0.0175   -0.0112    0.0235
          19   -0.0088   -0.0347   -0.0029    0.0017    0.0110   -0.0006    0.0143    0.0225
          20    0.0029   -0.0148    0.0122   -0.0056   -0.0108   -0.0127    0.0111   -0.0124
          21   -0.0085   -0.0394    0.0216    0.0027    0.0048   -0.0150    0.0163   -0.0040
          22   -0.0115    0.0434   -0.0226    0.0108    0.0478    0.0042    0.0130   -0.0185
          23    0.0015    0.0413    0.0054   -0.0055   -0.0148   -0.0103    0.0041   -0.0107
          24   -0.0104    0.0484    0.0174   -0.0024   -0.0272   -0.0119    0.0004    0.0264
          25    0.0046   -0.0043   -0.0016   -0.0072   -0.0072    0.0028   -0.0167   -0.0132
          26   -0.0067   -0.0146   -0.0107   -0.0002    0.0014    0.0113   -0.0115    0.0056
          27   -0.0218    0.0191    0.0257    0.0052    0.0191    0.0020   -0.0050    0.0072
          28   -0.0168   -0.0026   -0.0179   -0.0038   -0.0269    0.0213   -0.0250    0.0194
          29    0.0202    0.0068   -0.0100   -0.0076    0.0176    0.0015   -0.0116   -0.0378
          30   -0.0071   -0.0325    0.0174    0.0020    0.0025   -0.0057   -0.0063   -0.0150
          31   -0.0054   -0.0219   -0.0009   -0.0068   -0.0176    0.0149   -0.0387    0.0247
          32   -0.0059   -0.0292   -0.0308    0.0000   -0.0069    0.0163   -0.0101    0.0071
          33   -0.0177   -0.0042   -0.0113    0.0041   -0.0050    0.0067    0.0104   -0.0237
          34    0.0301   -0.0132   -0.0162   -0.0114   -0.0227   -0.0037   -0.0179   -0.0372
          35   -0.0040   -0.0228    0.0090    0.0021    0.0181    0.0011   -0.0131   -0.0452
          36    0.0232    0.0084   -0.0139   -0.0073   -0.0103   -0.0023   -0.0077   -0.0028
          37   -0.0570    0.0033   -0.0611    0.0047   -0.0580   -0.0079    0.0691   -0.0078
          38   -0.0678    0.0050    0.0020    0.0070   -0.0307    0.0029    0.0126   -0.0033
          39   -0.0151   -0.0049   -0.0050    0.0034   -0.0024    0.0089    0.0070   -0.0246
          40   -0.0332   -0.0019   -0.0360    0.0005   -0.0403    0.0027    0.0318    0.0034
          41    0.0264    0.0035    0.0523    0.0046    0.0094   -0.0124   -0.0198    0.0058
          42   -0.0571    0.0041   -0.0494    0.0111   -0.0338   -0.0104    0.0742   -0.0451
          43    0.1012    0.0158    0.1025   -0.0188   -0.0265    0.1519    0.0531   -0.0344
          44    0.0339   -0.0063    0.0277    0.0014    0.0237   -0.0035   -0.0367    0.0388
          45    0.0273   -0.0251   -0.0591    0.0087    0.0509   -0.0848   -0.0480    0.0460
          46    0.0391   -0.0063   -0.0039    0.0197    0.0158   -0.2142   -0.0417   -0.0093
          47   -0.0232    0.0064    0.0363    0.0074   -0.0184   -0.0122    0.0073   -0.0278
          48    0.0294   -0.0254   -0.0586    0.0084    0.0520   -0.0832   -0.0489    0.0478
          49    0.0687    0.0047    0.0482    0.0003   -0.0060   -0.0294    0.0063   -0.0214
          50   -0.0610   -0.0035   -0.0217    0.0033   -0.0209    0.0247    0.0021    0.0284
          51    0.0823   -0.0049    0.0350   -0.0246    0.0137    0.2295    0.0332    0.0242
          52   -0.0154    0.0147    0.0270    0.0002    0.0322   -0.0007    0.0018    0.0148
          53    0.0494    0.0230   -0.0137    0.2336   -0.0051    0.0066    0.0370    0.0478
          54    0.0619   -0.0048   -0.0457    0.1062   -0.0686    0.0048   -0.0171   -0.0199
          55    0.0039    0.0212    0.0312    0.2274    0.0174    0.0121    0.0072    0.0388
          56    0.0243    0.0153   -0.0187   -0.0597    0.0151   -0.0101    0.0307    0.0183
          57    0.0364    0.0317   -0.0295   -0.1291   -0.0015   -0.0198    0.0381    0.0482
          58   -0.0487    0.0237    0.0459   -0.1824    0.0789   -0.0132    0.0134    0.0252
          59    0.0339    0.0309   -0.0308   -0.1483    0.0212   -0.0217    0.0589    0.0492
          60    0.0172    0.0056   -0.0086   -0.0055   -0.0077   -0.0019   -0.0089   -0.0047
          61   -0.0095   -0.1239    0.0183    0.0022    0.0130   -0.0196    0.0571    0.0446
          62    0.0022   -0.0656    0.0304   -0.0097   -0.0309   -0.0260    0.0328    0.0164
          63   -0.0089   -0.1296    0.0349    0.0089    0.0341   -0.0308    0.0632   -0.0010
          64   -0.0147    0.0240   -0.0187    0.0189    0.0798   -0.0114    0.0544   -0.0319
          65    0.0005    0.0408    0.0179   -0.0105   -0.0434   -0.0193    0.0193    0.0387
          66   -0.0128    0.0366    0.0263   -0.0003   -0.0232   -0.0258    0.0329    0.0446
          67   -0.0109    0.1299   -0.0440    0.0111    0.0495    0.0228   -0.0292   -0.0471
          68    0.0011    0.0901   -0.0131   -0.0004    0.0094    0.0001   -0.0179   -0.0568
          69   -0.0085    0.1372    0.0052   -0.0096   -0.0602    0.0082   -0.0459    0.0421


   Root No.       9        10        11        12        13        14        15        16

                 9 A      10 A      11 A      12 A      13 A      14 A      15 A      16 A   

                 335.5     411.5     452.8     491.1     527.1     643.4     757.8     820.4
  
           1    0.0017    0.0278   -0.0023    0.0120    0.0046    0.0059   -0.0181    0.0238
           2    0.0000   -0.0101   -0.0220   -0.0193    0.0013    0.0038   -0.0207    0.0000
           3   -0.0376   -0.0056   -0.0022    0.0151    0.0276   -0.0200   -0.0203    0.0171
           4    0.0009    0.0229    0.0004    0.0222    0.0094   -0.0199   -0.0214   -0.0028
           5   -0.0106    0.0073   -0.0259    0.0095   -0.0093   -0.0139    0.0282   -0.0076
           6   -0.0155    0.0412    0.0330   -0.0039   -0.0144    0.0036   -0.0246    0.0023
           7    0.0029   -0.0068    0.0200   -0.0263    0.0008   -0.0113    0.0256   -0.0067
           8   -0.0076   -0.0091   -0.0260   -0.0324    0.0021   -0.0060   -0.0258    0.0048
           9    0.0062   -0.0285   -0.0281    0.0222   -0.0303    0.0103   -0.0235    0.0047
          10    0.0081   -0.0345   -0.0137    0.0095    0.0219   -0.0148   -0.0226   -0.0318
          11   -0.0020   -0.0190    0.0346   -0.0067   -0.0024    0.0048    0.0000    0.0010
          12   -0.0160    0.0212    0.0082   -0.0107   -0.0236    0.0158    0.0102   -0.0128
          13   -0.0292   -0.0180   -0.0037    0.0228   -0.0209    0.0047    0.0134   -0.0049
          14   -0.0284    0.0228    0.0046   -0.0149    0.0247   -0.0097   -0.0145    0.0039
          15    0.0118   -0.0077    0.0033    0.0195   -0.0195    0.0099    0.0114   -0.0030
          16   -0.0071    0.0038   -0.0125    0.0012    0.0014   -0.0028   -0.0028   -0.0080
          17   -0.0031   -0.0239    0.0451   -0.0089   -0.0037    0.0088   -0.0021    0.0027
          18    0.0151   -0.0198    0.0180   -0.0030    0.0023    0.0031    0.0021   -0.0015
          19    0.0146    0.0121   -0.0177   -0.0285   -0.0097    0.0651   -0.0088    0.0036
          20    0.0354    0.0069    0.0103    0.0342    0.0079    0.0278    0.0003    0.0012
          21   -0.0176   -0.0101    0.0054    0.0158    0.0323    0.0045    0.0178   -0.0081
          22    0.0104    0.0027    0.0094    0.0038   -0.0027    0.0013   -0.0037    0.0016
          23    0.0345    0.0066    0.0101    0.0286   -0.0057    0.0078   -0.0048    0.0036
          24   -0.0221   -0.0056   -0.0133   -0.0274   -0.0033   -0.0115    0.0070   -0.0053
          25    0.0048   -0.0026    0.0185   -0.0261    0.0024   -0.0112    0.0273   -0.0023
          26   -0.0094    0.0144   -0.0373    0.0108   -0.0103   -0.0154    0.0383   -0.0092
          27    0.0572    0.0190   -0.0252   -0.0158    0.0293   -0.0123    0.0083   -0.0013
          28   -0.0015    0.0653    0.0155    0.0290   -0.0113   -0.0283   -0.0369    0.0558
          29    0.0055   -0.0423   -0.0438   -0.0484   -0.0256   -0.0033   -0.0505   -0.0154
          30   -0.0375   -0.0097   -0.0007    0.0198    0.0476   -0.0001    0.0034    0.0074
          31   -0.0166    0.0346   -0.0053    0.0548    0.0287   -0.0447   -0.0449    0.0386
          32   -0.0481    0.0260   -0.0281    0.0401   -0.0274   -0.0237    0.0270   -0.0136
          33   -0.0208    0.0408    0.0344   -0.0091   -0.0308    0.0139   -0.0136   -0.0193
          34   -0.0141   -0.0333    0.0410   -0.0427   -0.0099   -0.0132    0.0052   -0.0079
          35   -0.0194   -0.0235   -0.0284   -0.0527    0.0199   -0.0207   -0.0612    0.0131
          36    0.0069   -0.0285   -0.0184    0.0284   -0.0427    0.0179   -0.0113   -0.0001
          37    0.0129   -0.0968   -0.0467    0.0000    0.0397   -0.0101    0.0470    0.1196
          38   -0.0099   -0.0256    0.0455   -0.0124   -0.0034    0.0130    0.0125    0.0961
          39   -0.0209    0.0499    0.0289   -0.0079   -0.0319    0.0160   -0.0202   -0.0503
          40    0.0097   -0.0438   -0.0225    0.0110    0.0266   -0.0179   -0.0077    0.0112
          41   -0.0082   -0.0041    0.0565   -0.0147   -0.0140    0.0172   -0.0270   -0.0865
          42   -0.0151   -0.0466   -0.0152   -0.0287   -0.0092    0.0330    0.0830    0.1437
          43   -0.0089    0.0098   -0.0162    0.0005   -0.0063    0.0022    0.0232    0.0470
          44    0.0116   -0.0406    0.0578   -0.0076    0.0088    0.0045    0.0053    0.1064
          45    0.0229   -0.0312    0.0261   -0.0021    0.0126   -0.0014   -0.0091    0.0163
          46   -0.0158    0.0274   -0.0129   -0.0039   -0.0091    0.0045    0.0189    0.0413
          47   -0.0310    0.0274    0.0312   -0.0177   -0.0386    0.0290    0.0432    0.0109
          48    0.0245   -0.0331    0.0259   -0.0017    0.0143   -0.0027   -0.0093    0.0224
          49   -0.0119    0.0178   -0.0152   -0.0011   -0.0068    0.0023    0.0183    0.0375
          50    0.0099   -0.0617    0.0508   -0.0027    0.0183   -0.0045   -0.0561   -0.1105
          51    0.0278   -0.0454    0.0221    0.0002    0.0144   -0.0019   -0.0034    0.0292
          52   -0.0297   -0.0186   -0.0040    0.0229   -0.0217    0.0049    0.0131   -0.0049
          53   -0.0427    0.0291    0.0011    0.0216    0.0214   -0.0013   -0.0234    0.0134
          54    0.0541    0.0090    0.0338   -0.0361    0.0094   -0.0114    0.0678   -0.0235
          55   -0.0438   -0.0154   -0.0093    0.0626   -0.0306    0.0167    0.0059    0.0031
          56   -0.0259    0.0233    0.0070   -0.0249    0.0284   -0.0134   -0.0115    0.0019
          57   -0.0210    0.0239    0.0353    0.0501    0.0035    0.0089    0.0496   -0.0043
          58   -0.0601   -0.0359   -0.0282    0.0574   -0.0465    0.0208   -0.0271    0.0076
          59   -0.0445    0.0528    0.0397   -0.0140    0.0549   -0.0205    0.0261   -0.0016
          60    0.0082   -0.0281   -0.0224    0.0314   -0.0424    0.0206   -0.0224    0.0042
          61    0.0574    0.0162   -0.0053   -0.0383   -0.0563    0.0205   -0.0065   -0.0090
          62    0.0676    0.0166    0.0171    0.0309   -0.0268    0.0072    0.0018    0.0014
          63    0.0153   -0.0161    0.0160    0.0002   -0.0057   -0.0456    0.0192   -0.0312
          64    0.0515   -0.0023    0.0525    0.0318   -0.0589   -0.2150   -0.0059    0.0160
          65    0.0597    0.0144   -0.0110   -0.0435   -0.0949   -0.0518   -0.0614    0.0325
          66    0.0149   -0.0048    0.0005   -0.0503   -0.0835   -0.1705   -0.0240    0.0179
          67   -0.0325   -0.0019    0.0034    0.0310    0.0677    0.0977    0.0242   -0.0190
          68    0.0084   -0.0008    0.0296    0.0922    0.0637    0.0338    0.0368   -0.0167
          69   -0.0638   -0.0033   -0.0546   -0.0726    0.0240    0.1311   -0.0042   -0.0133


   Root No.      17        18        19        20        21        22        23        24

                17 A      18 A      19 A      20 A      21 A      22 A      23 A      24 A   

                 898.2     918.1     922.8     947.1     963.7     976.4    1001.2    1015.3
  
           1   -0.0034   -0.0184   -0.0040    0.0076   -0.0256   -0.0127   -0.0018   -0.0001
           2    0.0276    0.0115    0.0086   -0.0020    0.0037   -0.0139   -0.0117    0.0087
           3    0.0227    0.0025   -0.0091    0.0134   -0.0170    0.0068   -0.0019   -0.0009
           4   -0.0016    0.0119    0.0051    0.0027    0.0217   -0.0051   -0.0130   -0.0098
           5   -0.0010    0.0011    0.0047    0.0089    0.0190    0.0113    0.0087    0.0160
           6   -0.0027    0.0153    0.0056   -0.0275   -0.0024   -0.0001    0.0022    0.0005
           7   -0.0097    0.0072   -0.0198   -0.0013   -0.0040   -0.0017    0.0091   -0.0142
           8   -0.0231   -0.0074   -0.0042   -0.0005   -0.0042   -0.0014    0.0028    0.0049
           9   -0.0094   -0.0078    0.0085    0.0008    0.0000   -0.0033   -0.0048    0.0045
          10    0.0014    0.0042    0.0012   -0.0083    0.0081    0.0001   -0.0078   -0.0113
          11    0.0000   -0.0005   -0.0003   -0.0007   -0.0017   -0.0001    0.0001   -0.0034
          12    0.0009   -0.0084   -0.0023    0.0116    0.0046   -0.0022   -0.0006    0.0004
          13   -0.0079    0.0127   -0.0312   -0.0022   -0.0073   -0.0025   -0.0147    0.0100
          14   -0.0233   -0.0112    0.0000   -0.0030    0.0013    0.0185   -0.0092   -0.0033
          15   -0.0004    0.0018   -0.0031   -0.0033   -0.0002    0.0060    0.0015   -0.0001
          16    0.0023   -0.0004   -0.0008   -0.0046   -0.0110    0.0039    0.0111    0.0125
          17    0.0004   -0.0044   -0.0005    0.0117    0.0052   -0.0023   -0.0063   -0.0007
          18    0.0011   -0.0100   -0.0031    0.0227    0.0015   -0.0034   -0.0113   -0.0104
          19    0.0080   -0.0123   -0.0151   -0.0080    0.0073   -0.0127    0.0042    0.0070
          20    0.0058   -0.0057   -0.0090   -0.0045    0.0044    0.0054    0.0000   -0.0007
          21   -0.0017   -0.0105   -0.0057   -0.0117    0.0100    0.0063   -0.0023   -0.0027
          22    0.0099    0.0047   -0.0068   -0.0019    0.0028    0.0171    0.0028   -0.0059
          23    0.0038   -0.0002   -0.0038    0.0002    0.0013    0.0028    0.0021   -0.0006
          24   -0.0144   -0.0089    0.0067   -0.0096    0.0077   -0.0252    0.0023    0.0059
          25    0.0157   -0.0175    0.0418   -0.0038    0.0059    0.0157   -0.0050    0.0185
          26    0.0056    0.0012   -0.0004   -0.0209   -0.0231   -0.0021   -0.0014   -0.0265
          27   -0.0005    0.0007   -0.0019    0.0060    0.0057    0.0022    0.0097   -0.0008
          28   -0.0509   -0.0199    0.0180    0.0044   -0.0638    0.0134    0.0258    0.0243
          29    0.0417    0.0421    0.0265    0.0021    0.0339   -0.1177   -0.0364    0.0201
          30    0.0385   -0.0106   -0.0284    0.0125   -0.0107    0.0425   -0.0046   -0.0191
          31   -0.0200    0.0286   -0.0324    0.0848    0.0466    0.0109    0.0187    0.0604
          32   -0.0397    0.0454   -0.0357    0.0487    0.1176    0.0401    0.0897    0.1589
          33   -0.0076    0.0223    0.0094   -0.0538    0.0198    0.0018    0.0157    0.0175
          34   -0.0503    0.0275   -0.0512    0.0403    0.0387   -0.0066    0.1789   -0.1559
          35   -0.0086    0.0279   -0.0388    0.0413   -0.0025   -0.0561    0.0695   -0.0225
          36   -0.0289   -0.0190    0.0164   -0.0080    0.0125    0.0236    0.0139   -0.0261
          37   -0.0009    0.0058   -0.0008    0.0137   -0.0202    0.0067    0.0115    0.0202
          38   -0.0122    0.0429    0.0161   -0.0642    0.0370   -0.0116   -0.0129   -0.0271
          39   -0.0025    0.0091    0.0053   -0.0263    0.0345   -0.0101   -0.0154   -0.0253
          40   -0.0035    0.0176    0.0071   -0.0125    0.0341   -0.0027   -0.0227   -0.0245
          41    0.0146   -0.0393   -0.0183    0.0174   -0.0850    0.0087    0.0484    0.0430
          42    0.0048   -0.0170   -0.0109    0.0280   -0.0633    0.0055    0.0451    0.0552
          43   -0.0066    0.0075    0.0042    0.0038    0.0270   -0.0075   -0.0197   -0.0199
          44   -0.0163    0.0597    0.0226   -0.1024    0.0388   -0.0035    0.0102    0.0073
          45   -0.0016    0.0154    0.0049   -0.0351   -0.0045    0.0024    0.0132    0.0107
          46   -0.0051    0.0087    0.0047    0.0048    0.0278   -0.0064   -0.0218   -0.0224
          47   -0.0013   -0.0518   -0.0133    0.1502    0.0578   -0.0249   -0.0902   -0.0750
          48   -0.0022    0.0197    0.0066   -0.0440   -0.0042    0.0024    0.0138    0.0087
          49   -0.0052    0.0076    0.0039    0.0013    0.0223   -0.0049   -0.0155   -0.0166
          50    0.0196   -0.0226   -0.0115   -0.0063   -0.0784    0.0202    0.0617    0.0741
          51   -0.0030    0.0190    0.0062   -0.0406   -0.0028    0.0022    0.0140    0.0104
          52   -0.0099    0.0125   -0.0323   -0.0027   -0.0074   -0.0012   -0.0146    0.0091
          53    0.0562   -0.0208    0.0842    0.0140    0.0143   -0.0201    0.0560   -0.0291
          54   -0.0283    0.0653   -0.1503   -0.0067   -0.0351   -0.0226   -0.0779    0.0610
          55    0.0656    0.0039    0.0480    0.0112    0.0058   -0.0349    0.0486   -0.0160
          56   -0.0386   -0.0075   -0.0204   -0.0054   -0.0027    0.0236   -0.0240    0.0037
          57    0.1358    0.0444    0.0242    0.0268   -0.0073   -0.0936    0.0582    0.0067
          58   -0.0110   -0.0311    0.0531   -0.0054    0.0153    0.0309    0.0329   -0.0325
          59    0.0652    0.0360   -0.0196    0.0201   -0.0132   -0.0656    0.0088    0.0168
          60   -0.0429   -0.0362    0.0362   -0.0152    0.0145    0.0577    0.0101   -0.0244
          61   -0.0690    0.0806    0.0942    0.0588   -0.0588   -0.0225    0.0011    0.0039
          62   -0.0667    0.0288    0.0526    0.0415   -0.0492   -0.0429    0.0170    0.0027
          63   -0.0395    0.1096    0.1064    0.0454   -0.0352    0.0553   -0.0318   -0.0126
          64   -0.0213   -0.0389    0.0061    0.0045   -0.0197   -0.0616   -0.0103    0.0160
          65    0.1012    0.0434   -0.0457    0.0376   -0.0211    0.1288   -0.0105   -0.0271
          66    0.0190   -0.0110   -0.0074    0.0135   -0.0170   -0.0045   -0.0126    0.0046
          67   -0.0506    0.0529    0.0654    0.0448   -0.0454   -0.0011   -0.0132    0.0007
          68   -0.0872   -0.0027    0.0618    0.0193   -0.0253   -0.0887   -0.0036    0.0247
          69    0.0115    0.0872    0.0426    0.0506   -0.0423    0.0822   -0.0194   -0.0198


   Root No.      25        26        27        28        29        30        31        32

                25 A      26 A      27 A      28 A      29 A      30 A      31 A      32 A   

                1024.4    1066.8    1082.1    1119.4    1126.5    1128.1    1148.2    1157.3
  
           1    0.0029   -0.0030   -0.0219    0.0102   -0.0060   -0.0019   -0.0046    0.0000
           2   -0.0032    0.0022    0.0257   -0.0172    0.0040   -0.0231    0.0244    0.0076
           3   -0.0006   -0.0027   -0.0231   -0.0044   -0.0030   -0.0066    0.0133   -0.0096
           4   -0.0044    0.0206    0.0140   -0.0071    0.0066    0.0004    0.0143    0.0063
           5    0.0009   -0.0189    0.0072   -0.0085    0.0114    0.0093    0.0339   -0.0021
           6   -0.0043    0.0055    0.0218   -0.0072   -0.0098   -0.0042    0.0003   -0.0377
           7    0.0017    0.0137   -0.0053    0.0079   -0.0068   -0.0056   -0.0305   -0.0030
           8   -0.0007   -0.0225   -0.0023   -0.0001    0.0000    0.0072   -0.0240    0.0055
           9   -0.0026   -0.0046   -0.0106    0.0286    0.0006    0.0354    0.0079   -0.0038
          10    0.0048   -0.0200   -0.0100    0.0119    0.0169   -0.0188   -0.0041   -0.0058
          11   -0.0008   -0.0004    0.0039   -0.0064    0.0548    0.0105   -0.0020   -0.0195
          12    0.0069    0.0006   -0.0181    0.0092    0.0044   -0.0064    0.0093    0.0462
          13   -0.0022   -0.0069    0.0032   -0.0031    0.0020    0.0012    0.0112    0.0010
          14    0.0012    0.0138   -0.0057    0.0013   -0.0006   -0.0009    0.0074   -0.0030
          15    0.0020   -0.0040    0.0072   -0.0276    0.0001   -0.0275   -0.0186    0.0053
          16   -0.0019    0.0114    0.0061   -0.0154   -0.0202    0.0234    0.0003    0.0045
          17   -0.0006   -0.0011   -0.0026    0.0063   -0.0580   -0.0111    0.0029    0.0151
          18   -0.0071    0.0030    0.0094   -0.0096    0.0049    0.0130   -0.0100   -0.0167
          19    0.0258    0.0013    0.0093   -0.0067    0.0012   -0.0029    0.0082   -0.0025
          20    0.0107    0.0001    0.0108    0.0073   -0.0002    0.0036   -0.0059    0.0024
          21    0.0112   -0.0007    0.0217    0.0184   -0.0013    0.0094   -0.0179    0.0025
          22   -0.0407   -0.0019   -0.0132    0.0029   -0.0015    0.0029   -0.0046   -0.0029
          23   -0.0228    0.0012   -0.0104   -0.0015    0.0006   -0.0004    0.0041    0.0013
          24   -0.0318    0.0014   -0.0020   -0.0084    0.0015   -0.0068    0.0066    0.0023
          25   -0.0006   -0.0076   -0.0052    0.0005    0.0046    0.0085    0.0056   -0.0022
          26   -0.0015    0.0139   -0.0037    0.0048   -0.0109   -0.0022   -0.0149   -0.0008
          27    0.0023    0.0011   -0.0020    0.0008   -0.0027   -0.0028    0.0006    0.0007
          28   -0.0799   -0.1369    0.1625    0.0590    0.0036    0.0061   -0.0271    0.0626
          29   -0.0178    0.1435    0.0043    0.0888   -0.0161   -0.0014   -0.0524   -0.0368
          30    0.0480   -0.0012   -0.1062   -0.0779    0.0014   -0.0200    0.0612   -0.0223
          31   -0.0235    0.1143    0.0303   -0.0153    0.0634   -0.0096   -0.0532    0.1206
          32    0.0379    0.0019   -0.0576    0.0401   -0.0311   -0.0226   -0.0860   -0.0921
          33    0.0194   -0.0330   -0.0118    0.0155   -0.0551   -0.0119   -0.0096   -0.1289
          34    0.0171    0.0183    0.0461    0.0223   -0.0005    0.0202    0.1309   -0.0048
          35   -0.0028   -0.1016   -0.0151   -0.0645    0.0102    0.0006   -0.0840    0.0312
          36    0.0033    0.0378    0.0132    0.0669   -0.0026    0.0477    0.0942   -0.0183
          37   -0.0273    0.0237    0.0562   -0.0062   -0.0261   -0.0183    0.0098   -0.0862
          38    0.0261    0.0224   -0.0304   -0.0833    0.1252    0.1648   -0.0664    0.0404
          39    0.0345   -0.0119   -0.0666   -0.0121    0.0543    0.0539   -0.0220    0.1133
          40    0.0063   -0.0266   -0.0033   -0.0156   -0.0426    0.0203   -0.0052   -0.0074
          41   -0.0110    0.0349   -0.0066    0.0727    0.2364   -0.1063    0.0021   -0.0210
          42   -0.0203    0.0876    0.0200    0.0092    0.0421   -0.0236    0.0203    0.0213
          43    0.0031   -0.0158   -0.0066    0.0134    0.0058   -0.0221    0.0003   -0.0044
          44    0.0404   -0.0351   -0.0665    0.0758   -0.0584   -0.1057    0.0353    0.0959
          45    0.0091    0.0029   -0.0126    0.0050   -0.0076   -0.0031    0.0047    0.0255
          46    0.0045   -0.0149   -0.0077    0.0142    0.0059   -0.0214    0.0000    0.0015
          47   -0.0265   -0.0219    0.0231    0.0081   -0.0549   -0.0217   -0.0330   -0.0508
          48    0.0103   -0.0001   -0.0127    0.0067    0.0176   -0.0071    0.0078    0.0186
          49    0.0031   -0.0134   -0.0040    0.0069    0.0194   -0.0107   -0.0005   -0.0090
          50   -0.0120    0.0630    0.0218   -0.0508   -0.1658    0.0767    0.0054    0.0542
          51    0.0113    0.0007   -0.0150    0.0110    0.0086   -0.0120    0.0078    0.0254
          52   -0.0020   -0.0062    0.0040   -0.0048    0.0019   -0.0010    0.0114    0.0014
          53    0.0042    0.0023   -0.0110    0.0206   -0.0056    0.0141   -0.0326   -0.0030
          54   -0.0126   -0.0403    0.0113   -0.0110    0.0108    0.0126    0.0495    0.0067
          55    0.0023   -0.0188    0.0094   -0.0117   -0.0022   -0.0144   -0.0330    0.0071
          56   -0.0002    0.0146   -0.0082    0.0054    0.0005    0.0059    0.0179   -0.0047
          57   -0.0038   -0.0673    0.0111   -0.0027    0.0022    0.0109   -0.0322    0.0131
          58    0.0095    0.0172    0.0101   -0.0436   -0.0040   -0.0544   -0.0375    0.0066
          59   -0.0093   -0.0325   -0.0131    0.0580    0.0014    0.0693    0.0189   -0.0058
          60    0.0112    0.0250    0.0131   -0.0707   -0.0029   -0.0818   -0.0422    0.0090
          61   -0.0370   -0.0027   -0.0653   -0.0304   -0.0032   -0.0107    0.0279   -0.0225
          62   -0.0050   -0.0106   -0.1050   -0.0308   -0.0138    0.0083    0.0159   -0.0684
          63   -0.0800    0.0073    0.0440    0.0281    0.0090   -0.0103   -0.0123    0.0610
          64    0.1627    0.0013    0.0371   -0.0089    0.0004   -0.0091    0.0081    0.0037
          65    0.0779   -0.0035   -0.0051    0.0305   -0.0042    0.0238   -0.0208   -0.0103
          66    0.1404    0.0008    0.0327    0.0021    0.0002   -0.0014    0.0001    0.0013
          67    0.1360   -0.0017    0.0252    0.0062   -0.0014    0.0063   -0.0038   -0.0053
          68    0.1061    0.0069    0.0108   -0.0217    0.0045   -0.0107    0.0289   -0.0017
          69    0.1057   -0.0059    0.0377    0.0291   -0.0040    0.0154   -0.0288    0.0029


   Root No.      33        34        35        36        37        38        39        40

                33 A      34 A      35 A      36 A      37 A      38 A      39 A      40 A   

                1168.9    1178.6    1208.4    1253.0    1257.2    1299.3    1318.5    1365.6
  
           1   -0.0269    0.0151   -0.0296    0.0237   -0.0059   -0.0292   -0.0012   -0.0078
           2   -0.0335   -0.0123    0.0159   -0.0168    0.0199    0.0035   -0.0118   -0.0147
           3   -0.0216    0.0111    0.0144   -0.0036   -0.0152    0.0178   -0.0016    0.0153
           4    0.0261    0.0050   -0.0276   -0.0048    0.0452    0.0160    0.0073   -0.0160
           5    0.0123    0.0265   -0.0058    0.0398    0.0013    0.0140    0.0040    0.0313
           6    0.0270   -0.0166    0.0090    0.0057   -0.0160   -0.0120    0.0048    0.0148
           7   -0.0106   -0.0200    0.0046    0.0283    0.0162    0.0472   -0.0160    0.0142
           8    0.0110   -0.0269   -0.0018    0.0392    0.0150   -0.0208    0.0284   -0.0019
           9    0.0232   -0.0175   -0.0096   -0.0188    0.0029    0.0144   -0.0148   -0.0019
          10   -0.0034   -0.0073    0.0120   -0.0080   -0.0090   -0.0064    0.0051    0.0084
          11   -0.0014    0.0026    0.0043    0.0263   -0.0173    0.0081   -0.0223   -0.0262
          12    0.0025    0.0083    0.0053    0.0151   -0.0041    0.0083   -0.0121   -0.0100
          13    0.0010    0.0052   -0.0003   -0.0071   -0.0040   -0.0062   -0.0011    0.0015
          14   -0.0008    0.0105   -0.0014   -0.0110   -0.0053    0.0017   -0.0021   -0.0042
          15   -0.0027    0.0145   -0.0013    0.0035   -0.0014    0.0042   -0.0047    0.0071
          16   -0.0040    0.0039   -0.0020    0.0041    0.0004    0.0021   -0.0022   -0.0037
          17    0.0046   -0.0030    0.0003   -0.0054    0.0017   -0.0007   -0.0015   -0.0205
          18   -0.0078   -0.0037   -0.0014   -0.0083    0.0015   -0.0026    0.0041    0.0028
          19   -0.0004   -0.0117   -0.0022   -0.0096   -0.0188    0.0150   -0.0008    0.0104
          20    0.0023    0.0028   -0.0034    0.0019    0.0043   -0.0127   -0.0130    0.0047
          21    0.0097    0.0188    0.0116    0.0049    0.0145   -0.0043    0.0113   -0.0131
          22    0.0039    0.0088    0.0122    0.0023    0.0092   -0.0025    0.0037   -0.0050
          23   -0.0038   -0.0061   -0.0156    0.0001   -0.0120   -0.0017   -0.0093    0.0114
          24   -0.0066   -0.0074   -0.0036   -0.0017   -0.0015    0.0030    0.0021   -0.0027
          25    0.0131    0.0044    0.0044   -0.0203   -0.0151   -0.0165    0.0041   -0.0041
          26    0.0049   -0.0105    0.0071   -0.0263   -0.0093   -0.0066   -0.0007   -0.0067
          27   -0.0071    0.0018   -0.0001   -0.0015    0.0007   -0.0009    0.0009   -0.0005
          28   -0.0967    0.0394    0.0960   -0.0608    0.0031    0.0729   -0.0104    0.0012
          29   -0.0226    0.1772    0.0056    0.0529   -0.0655   -0.0215    0.0259    0.0259
          30    0.0095   -0.0909   -0.0449    0.0090    0.0228   -0.0208   -0.0137   -0.0079
          31    0.0830   -0.1019    0.1386   -0.0104   -0.0920   -0.0554   -0.0060    0.0130
          32   -0.1110   -0.0310   -0.0177   -0.0805    0.0047   -0.0194   -0.0191   -0.0461
          33   -0.0453    0.0153   -0.0810   -0.0355    0.0546    0.0104    0.0036   -0.0296
          34   -0.0380    0.0307    0.0010   -0.0458   -0.0401   -0.0789    0.0194   -0.0160
          35    0.1533    0.0939   -0.1062   -0.1163   -0.0404    0.0096   -0.0456   -0.0135
          36   -0.0611   -0.0678    0.0461    0.0391    0.0157   -0.0443    0.0371   -0.0069
          37    0.0434   -0.0143   -0.0036    0.0203   -0.0191   -0.0030   -0.0099    0.0423
          38   -0.1119    0.0146   -0.0050   -0.0743    0.0368   -0.0204    0.0472    0.0739
          39   -0.0634    0.0162    0.0095   -0.0383    0.0232   -0.0043    0.0229    0.0059
          40   -0.0092   -0.0052    0.0241    0.0223   -0.0340    0.0009   -0.0180   -0.0210
          41    0.0230   -0.0054   -0.0398   -0.0724    0.0687   -0.0145    0.0529    0.0685
          42    0.0363    0.0098   -0.0646   -0.0363    0.0886    0.0093    0.0308   -0.0447
          43    0.0043   -0.0049    0.0036   -0.0061   -0.0021   -0.0018    0.0122    0.0321
          44    0.0316    0.0019    0.0039   -0.0199    0.0190   -0.0032    0.0334    0.0866
          45    0.0001    0.0036   -0.0019   -0.0064    0.0088   -0.0010    0.0081    0.0212
          46    0.0053   -0.0034    0.0037   -0.0061    0.0038   -0.0076    0.0067    0.0339
          47   -0.0147   -0.0252   -0.0071   -0.0697    0.0317   -0.0272    0.0513    0.1025
          48    0.0067    0.0037    0.0046    0.0152   -0.0085    0.0042   -0.0143   -0.0291
          49    0.0014   -0.0021    0.0047    0.0088   -0.0094    0.0025   -0.0124   -0.0367
          50   -0.0095    0.0132   -0.0173   -0.0219    0.0309   -0.0044    0.0329    0.0922
          51    0.0058    0.0044    0.0003    0.0039    0.0049   -0.0017   -0.0066   -0.0034
          52   -0.0008    0.0065    0.0004   -0.0053   -0.0042   -0.0111    0.0038   -0.0021
          53    0.0096   -0.0290   -0.0046    0.0090    0.0122    0.0510   -0.0340    0.0314
          54    0.0050    0.0185    0.0016   -0.0081   -0.0144   -0.0866    0.0594   -0.0352
          55   -0.0079   -0.0175    0.0057    0.0423    0.0127   -0.0321    0.0407   -0.0241
          56    0.0037    0.0144   -0.0039   -0.0244   -0.0094    0.0116   -0.0160    0.0054
          57    0.0055   -0.0518    0.0056    0.0612    0.0247   -0.0592    0.0653   -0.0297
          58   -0.0181    0.0214    0.0033    0.0251    0.0004   -0.0212    0.0295   -0.0119
          59    0.0266   -0.0413   -0.0066   -0.0126    0.0051    0.0303   -0.0313    0.0205
          60   -0.0220    0.0446    0.0022    0.0175   -0.0046   -0.0199    0.0251   -0.0127
          61   -0.0052   -0.0036    0.0416   -0.0079    0.0025    0.0153    0.0028    0.0043
          62    0.0481    0.0665    0.2067   -0.0119    0.0931   -0.0012    0.0079   -0.0207
          63   -0.0592   -0.0498   -0.1865    0.0269   -0.0611   -0.0208   -0.0109    0.0081
          64   -0.0091   -0.0090   -0.0048    0.0046    0.0310   -0.0728   -0.0922    0.0393
          65    0.0184    0.0241    0.0072   -0.0041   -0.0466    0.1017    0.1288   -0.0518
          66   -0.0031   -0.0016   -0.0019   -0.0015   -0.0021    0.0079    0.0100   -0.0076
          67    0.0092    0.0046    0.0097   -0.0038   -0.0073    0.0257    0.0301   -0.0135
          68   -0.0119   -0.0354   -0.0384   -0.0206   -0.0846    0.1127    0.1044   -0.0276
          69    0.0149    0.0272    0.0215    0.0161    0.0667   -0.1004   -0.1020    0.0344


   Root No.      41        42        43        44        45        46        47        48

                41 A      42 A      43 A      44 A      45 A      46 A      47 A      48 A   

                1392.8    1398.6    1403.0    1405.6    1408.1    1411.9    1427.4    1464.8
  
           1    0.0093   -0.0219   -0.0155    0.0013    0.0116    0.0032   -0.0075   -0.0440
           2    0.0063   -0.0206   -0.0058    0.0013    0.0078    0.0034   -0.0101   -0.0404
           3   -0.0082    0.0230    0.0117   -0.0013   -0.0101   -0.0035    0.0088    0.0420
           4   -0.0020   -0.0027    0.0123   -0.0003   -0.0064    0.0005    0.0025    0.0421
           5   -0.0018    0.0134   -0.0087   -0.0016    0.0033   -0.0039    0.0104   -0.0371
           6    0.0015    0.0071   -0.0117   -0.0003    0.0055   -0.0011    0.0009   -0.0263
           7   -0.0092    0.0088    0.0107   -0.0013   -0.0074   -0.0021   -0.0003   -0.0333
           8    0.0054    0.0011   -0.0101    0.0005    0.0040    0.0003    0.0077    0.0500
           9   -0.0090    0.0014    0.0136   -0.0007   -0.0067   -0.0006   -0.0055   -0.0323
          10    0.0009    0.0173   -0.0127    0.0006    0.0047   -0.0036   -0.0030   -0.0143
          11   -0.0004   -0.0076    0.0071    0.0025   -0.0026    0.0068   -0.0483    0.0249
          12   -0.0017   -0.0290    0.0207   -0.0033   -0.0076    0.0059    0.0051    0.0200
          13    0.0171   -0.0092   -0.0258    0.0026   -0.0201    0.0006    0.0023    0.0162
          14   -0.0389    0.0043    0.0114   -0.0002   -0.0216   -0.0014   -0.0038   -0.0199
          15   -0.0027   -0.0133   -0.0344    0.0014    0.0292    0.0023    0.0065    0.0296
          16    0.0001    0.0009   -0.0011   -0.0341   -0.0015    0.0126    0.0004    0.0008
          17    0.0028    0.0156   -0.0084    0.0020    0.0024   -0.0113    0.0550   -0.0118
          18    0.0006   -0.0010   -0.0020   -0.0130    0.0014   -0.0330   -0.0021   -0.0010
          19   -0.0059    0.0153    0.0077   -0.0007   -0.0066   -0.0021    0.0049    0.0213
          20   -0.0014    0.0034    0.0013   -0.0007   -0.0012   -0.0015    0.0006    0.0002
          21    0.0061   -0.0156   -0.0078    0.0011    0.0063    0.0028   -0.0051   -0.0200
          22    0.0024   -0.0061   -0.0030    0.0005    0.0026    0.0011   -0.0019   -0.0076
          23   -0.0054    0.0139    0.0067   -0.0010   -0.0059   -0.0025    0.0049    0.0196
          24    0.0014   -0.0036   -0.0017    0.0004    0.0016    0.0009   -0.0014   -0.0063
          25    0.0006    0.0008    0.0001    0.0003    0.0003    0.0003   -0.0006    0.0126
          26   -0.0005   -0.0002    0.0029    0.0002   -0.0021    0.0005   -0.0009    0.0116
          27    0.0000   -0.0001    0.0001    0.0001    0.0002   -0.0001    0.0012    0.0027
          28   -0.0132    0.0265    0.0240    0.0016   -0.0176   -0.0032    0.0004    0.0448
          29    0.0011    0.0258   -0.0051   -0.0025   -0.0096   -0.0047    0.0139    0.0421
          30    0.0056   -0.0230   -0.0082    0.0001    0.0131    0.0035   -0.0055   -0.0400
          31    0.0067   -0.0040   -0.0230   -0.0033    0.0131    0.0001   -0.0075   -0.0513
          32    0.0026   -0.0175    0.0104    0.0089   -0.0030    0.0041   -0.0175    0.0248
          33   -0.0011   -0.0045    0.0133    0.0044   -0.0067    0.0025   -0.0049    0.0463
          34    0.0127   -0.0151   -0.0212    0.0022    0.0083    0.0029   -0.0013    0.0204
          35   -0.0117   -0.0119    0.0129    0.0002   -0.0094    0.0013   -0.0148   -0.0634
          36    0.0067    0.0001   -0.0089    0.0006    0.0058    0.0007    0.0061    0.0479
          37   -0.0085   -0.1514    0.0917   -0.0264   -0.0320    0.0338    0.1094    0.0250
          38   -0.0025   -0.0327    0.0137   -0.0096   -0.0044   -0.0023    0.1030   -0.0347
          39    0.0032    0.0649   -0.0411    0.0079    0.0144   -0.0209   -0.0081   -0.0259
          40    0.0015    0.0241   -0.0150    0.0043    0.0053   -0.0001   -0.0489    0.0021
          41   -0.0030   -0.0351    0.0190   -0.0129   -0.0064   -0.0022    0.1036   -0.0227
          42    0.0085    0.1568   -0.0915    0.0214    0.0308   -0.0386   -0.0944   -0.0140
          43   -0.0017   -0.0445    0.0208    0.1673    0.0094   -0.2477   -0.0443    0.0104
          44   -0.0072   -0.0513    0.0181   -0.1267   -0.0069   -0.0485   -0.1323    0.0229
          45   -0.0023    0.0013   -0.0041   -0.1594   -0.0083    0.1134   -0.0427    0.0060
          46   -0.0051   -0.0047    0.0181    0.3081    0.0043    0.0839   -0.0201    0.0011
          47   -0.0071   -0.0025   -0.0019   -0.0281   -0.0027    0.1425   -0.1058   -0.0012
          48    0.0016    0.0040    0.0068    0.1917    0.0058   -0.0391    0.0549   -0.0041
          49    0.0037    0.0217   -0.0126   -0.0544    0.0005    0.0124    0.0549   -0.0104
          50   -0.0094   -0.0532    0.0317    0.1253   -0.0024   -0.0150   -0.1251    0.0238
          51   -0.0032    0.0369   -0.0013    0.1320   -0.0057    0.3263    0.0267   -0.0071
          52   -0.0054   -0.0044   -0.0109    0.0010   -0.0059    0.0004    0.0009    0.0095
          53    0.3331    0.0043   -0.0031    0.0014   -0.0112    0.0010    0.0037    0.0152
          54    0.1138    0.0603    0.1700   -0.0126    0.0614   -0.0026   -0.0170   -0.0440
          55   -0.2750    0.0183    0.0669   -0.0103    0.1430    0.0008   -0.0019   -0.0187
          56    0.0644   -0.0035   -0.0146    0.0030   -0.0556   -0.0010   -0.0017   -0.0058
          57   -0.0159    0.0255    0.0315    0.0063   -0.2684   -0.0107   -0.0127   -0.0397
          58    0.1327    0.0609    0.1707   -0.0162    0.1543   -0.0004   -0.0114   -0.0454
          59    0.0128   -0.0169   -0.0120   -0.0079    0.2780    0.0102    0.0140    0.0533
          60    0.0351    0.0290    0.0637   -0.0021   -0.0706   -0.0048   -0.0096   -0.0374
          61   -0.0028    0.0081    0.0047   -0.0003   -0.0034   -0.0008    0.0031    0.0151
          62    0.0078   -0.0196   -0.0070    0.0009    0.0075    0.0029   -0.0061   -0.0180
          63    0.0001   -0.0001   -0.0028   -0.0003    0.0012   -0.0006   -0.0003   -0.0109
          64   -0.0146    0.0357    0.0171   -0.0046   -0.0140   -0.0107    0.0100    0.0337
          65    0.0189   -0.0457   -0.0220    0.0059    0.0179    0.0140   -0.0121   -0.0390
          66    0.0036   -0.0092   -0.0044    0.0006    0.0039    0.0017   -0.0032   -0.0131
          67    0.0049   -0.0120   -0.0057    0.0010    0.0047    0.0029   -0.0034   -0.0125
          68    0.0077   -0.0179   -0.0081    0.0054    0.0065    0.0113   -0.0040   -0.0091
          69   -0.0119    0.0286    0.0136   -0.0065   -0.0112   -0.0146    0.0078    0.0250


   Root No.      49        50        51        52        53        54        55        56

                49 A      50 A      51 A      52 A      53 A      54 A      55 A      56 A   

                1860.3    2906.2    2912.2    2938.3    2955.1    3035.9    3040.2    3070.5
  
           1   -0.0163    0.0014    0.0040   -0.0231   -0.0001    0.0000   -0.0001    0.0002
           2   -0.0284    0.0024    0.0030   -0.0215   -0.0003   -0.0002    0.0003    0.0001
           3    0.0330    0.0041    0.0074   -0.0464   -0.0008   -0.0004    0.0002    0.0002
           4    0.0005   -0.0228   -0.0046   -0.0040   -0.0023   -0.0002    0.0002    0.0000
           5    0.0008    0.0175    0.0038    0.0020    0.0016    0.0002    0.0002   -0.0001
           6   -0.0029   -0.0447   -0.0081   -0.0061   -0.0042    0.0008   -0.0004    0.0001
           7   -0.0021   -0.0024    0.0157    0.0021    0.0002    0.0000    0.0000    0.0000
           8    0.0000    0.0041   -0.0243   -0.0048   -0.0003    0.0000   -0.0004    0.0000
           9    0.0018    0.0086   -0.0448   -0.0076   -0.0004    0.0001   -0.0001    0.0000
          10    0.0006    0.0049    0.0012    0.0014   -0.0450   -0.0191    0.0001   -0.0031
          11    0.0000   -0.0004   -0.0001    0.0001    0.0016   -0.0206    0.0002   -0.0006
          12    0.0004    0.0029    0.0008    0.0007   -0.0280    0.0257   -0.0002   -0.0008
          13   -0.0001    0.0001   -0.0011   -0.0001    0.0002   -0.0006   -0.0001    0.0001
          14    0.0006   -0.0002    0.0014    0.0001   -0.0003    0.0009    0.0001   -0.0003
          15   -0.0006   -0.0001    0.0011    0.0002   -0.0004    0.0010    0.0001   -0.0002
          16    0.0000   -0.0003    0.0000   -0.0006    0.0025    0.0030    0.0000   -0.0487
          17    0.0000   -0.0001    0.0000   -0.0001    0.0000   -0.0006    0.0000   -0.0004
[...]
 RED. MASS   0.4870        C  1 --  H 10           +7.1% ( 34.2%)     0.2%
 EFF. MASS   4.9338

 VIBRATION   43   43A       ATOM PAIR        ENERGY CONTRIBUTION    RADIAL
 FREQ.      1402.95        C  5 --  H 20          +19.0% ( 53.7%)     2.4%
 T-DIPOLE    0.2269        C  5 --  H 18          +16.6% ( 50.2%)     6.5%
 TRAVEL      0.1040        C  3 --  C  5          +10.8% ( 40.4%)    93.8%
 RED. MASS   0.5201        C  5 --  H 19           +9.6% ( 38.2%)     0.3%
 EFF. MASS   4.4459

 VIBRATION   44   44A       ATOM PAIR        ENERGY CONTRIBUTION    RADIAL
 FREQ.      1405.63        C  6 --  H 16          +51.4% ( 61.9%)     0.1%
 T-DIPOLE    0.0439        C  6 --  H 15          +27.5% ( 45.2%)     6.4%
 TRAVEL      0.1760        C  6 --  H 17          +14.8% ( 33.2%)    19.3%
 RED. MASS   0.4079        C  4 --  C  6           +4.9% ( 19.1%)     0.1%
 EFF. MASS   1.5482

 VIBRATION   45   45A       ATOM PAIR        ENERGY CONTRIBUTION    RADIAL
 FREQ.      1408.13        C  5 --  H 20          +38.9% ( 59.5%)     2.4%
 T-DIPOLE    0.0854        C  5 --  H 19          +34.8% ( 56.2%)     3.9%
 TRAVEL      0.1488        C  3 --  C  5           +6.8% ( 24.8%)    62.5%
 RED. MASS   0.4519        C  5 --  H 18           +5.2% ( 21.8%)    44.8%
 EFF. MASS   2.1623

 VIBRATION   46   46A       ATOM PAIR        ENERGY CONTRIBUTION    RADIAL
 FREQ.      1411.94        C  6 --  H 17          +44.4% ( 59.1%)     0.4%
 T-DIPOLE    0.0587        C  6 --  H 15          +32.1% ( 50.2%)     2.2%
 TRAVEL      0.1668        C  6 --  H 16          +12.7% ( 31.6%)    32.0%
 RED. MASS   0.3897        C  4 --  C  6           +6.2% ( 22.0%)    13.1%
 EFF. MASS   1.7157

 VIBRATION   47   47A       ATOM PAIR        ENERGY CONTRIBUTION    RADIAL
 FREQ.      1427.42        C  4 --  C  6          +20.0% ( 56.9%)    99.8%
 T-DIPOLE    0.1517        C  6 --  H 15          +14.3% ( 48.1%)     3.9%
 TRAVEL      0.0949        C  6 --  H 17          +13.8% ( 47.2%)     3.4%
 RED. MASS   0.9126        C  4 --  H 13          +12.4% ( 44.7%)     3.8%
 EFF. MASS   5.2407        C  6 --  H 16          +12.3% ( 44.7%)     3.7%
                           C  4 --  H 14          +12.2% ( 44.4%)     3.8%

 VIBRATION   48   48A       ATOM PAIR        ENERGY CONTRIBUTION    RADIAL
 FREQ.      1464.82        C  1 --  C  3          +11.4% ( 58.2%)    59.9%
 T-DIPOLE    0.4249        C  1 --  C  2          +10.4% ( 55.6%)    61.4%
 TRAVEL      0.0667        C  2 --  C  3           +9.9% ( 54.1%)    99.6%
 RED. MASS   1.8078        C  1 --  C  7           +8.2% ( 49.5%)    93.0%
 EFF. MASS  10.3526

 VIBRATION   49   49A       ATOM PAIR        ENERGY CONTRIBUTION    RADIAL
 FREQ.      1860.28        C  7 --  C  8          +44.7% ( 99.0%)    98.7%
 T-DIPOLE    0.2221        C  1 --  C  7          +17.1% ( 61.2%)    57.1%
 TRAVEL      0.0554        C  7 --  H 21          +15.4% ( 58.1%)     3.7%
 RED. MASS   5.2937        C  8 --  H 23          +10.8% ( 48.6%)    10.0%
 EFF. MASS  11.8247        C  8 --  H 22          +10.5% ( 47.9%)    13.1%

 VIBRATION   50   50A       ATOM PAIR        ENERGY CONTRIBUTION    RADIAL
 FREQ.      2906.19        C  2 --  H 11          +90.3% ( 97.3%)    99.9%
 T-DIPOLE    0.0438        C  3 --  H 12           +3.5% ( 19.1%)    99.9%
 TRAVEL      0.1261        C  2 --  C  4           +1.1% ( 10.6%)    11.0%
 RED. MASS   0.8327        C  1 --  C  2           +1.1% ( 10.6%)    18.3%
 EFF. MASS   1.4583

 VIBRATION   51   51A       ATOM PAIR        ENERGY CONTRIBUTION    RADIAL
 FREQ.      2912.17        C  3 --  H 12          +89.6% ( 97.0%)   100.0%
 T-DIPOLE    0.0407        C  1 --  H 10           +2.8% ( 17.2%)    99.9%
 TRAVEL      0.1254        C  2 --  H 11           +2.8% ( 17.1%)   100.0%
 RED. MASS   0.8227        C  1 --  C  3           +1.1% ( 10.9%)    19.2%
 EFF. MASS   1.4721

 VIBRATION   52   52A       ATOM PAIR        ENERGY CONTRIBUTION    RADIAL
 FREQ.      2938.25        C  1 --  H 10          +92.4% ( 98.0%)   100.0%
 T-DIPOLE    0.2019        C  3 --  H 12           +2.1% ( 14.9%)    99.6%
 TRAVEL      0.1264        C  2 --  H 11           +1.4% ( 11.9%)    99.4%
 RED. MASS   0.8611        C  1 --  O  9           +1.0% ( 10.1%)    32.1%
 EFF. MASS   1.4363

 VIBRATION   53   53A       ATOM PAIR        ENERGY CONTRIBUTION    RADIAL
 FREQ.      2955.06        C  4 --  H 13          +54.7% ( 76.8%)    97.2%
 T-DIPOLE    0.0859        C  4 --  H 14          +41.7% ( 67.0%)    95.6%
 TRAVEL      0.1218        C  4 --  C  6           +1.2% ( 11.1%)     0.1%
 RED. MASS   0.5125        C  2 --  C  4           +1.1% ( 11.0%)     0.0%
 EFF. MASS   1.5389

 VIBRATION   54   54A       ATOM PAIR        ENERGY CONTRIBUTION    RADIAL
 FREQ.      3035.89        C  4 --  H 14          +56.2% ( 73.9%)    98.4%
 T-DIPOLE    0.0977        C  4 --  H 13          +41.6% ( 63.6%)    96.7%
 TRAVEL      0.1319        C  4 --  C  6           +0.6% (  7.9%)    26.2%
 RED. MASS   0.4852        C  2 --  C  4           +0.6% (  7.7%)    29.2%
 EFF. MASS   1.2774

 VIBRATION   55   55A       ATOM PAIR        ENERGY CONTRIBUTION    RADIAL
 FREQ.      3040.21        C  7 --  H 21          +96.3% ( 99.6%)   100.0%
 T-DIPOLE    0.2660        C  7 --  C  8           +1.4% ( 12.1%)    31.1%
 TRAVEL      0.1214        C  1 --  C  7           +1.4% ( 11.8%)    14.2%
 RED. MASS   0.9138        C  8 --  H 22           +0.9% (  9.4%)    95.5%
 EFF. MASS   1.5052

 VIBRATION   56   56A       ATOM PAIR        ENERGY CONTRIBUTION    RADIAL
 FREQ.      3070.48        C  6 --  H 17          +58.8% ( 79.1%)    98.1%
 T-DIPOLE    0.0123        C  6 --  H 15          +38.0% ( 63.6%)    95.1%
 TRAVEL      0.1210        C  6 --  H 16           +1.8% ( 13.9%)    20.7%
 RED. MASS   0.5181        C  4 --  C  6           +1.0% ( 10.2%)     0.0%
 EFF. MASS   1.5005

 VIBRATION   57   57A       ATOM PAIR        ENERGY CONTRIBUTION    RADIAL
 FREQ.      3078.62        C  5 --  H 20          +68.8% ( 85.6%)    99.1%
 T-DIPOLE    0.0739        C  5 --  H 19          +19.4% ( 45.5%)    87.2%
 TRAVEL      0.1207        C  5 --  H 18          +10.5% ( 33.4%)    75.5%
 RED. MASS   0.5508        C  3 --  C  5           +1.0% ( 10.4%)     0.1%
 EFF. MASS   1.5046

 VIBRATION   58   58A       ATOM PAIR        ENERGY CONTRIBUTION    RADIAL
 FREQ.      3084.63        C  6 --  H 16          +57.1% ( 77.9%)    98.5%
 T-DIPOLE    0.0186        C  6 --  H 15          +29.3% ( 55.8%)    92.1%
 TRAVEL      0.1206        C  6 --  H 17          +11.9% ( 35.5%)    77.1%
 RED. MASS   0.4548        C  4 --  C  6           +1.0% ( 10.3%)     0.0%
 EFF. MASS   1.5029

 VIBRATION   59   59A       ATOM PAIR        ENERGY CONTRIBUTION    RADIAL
 FREQ.      3089.28        C  5 --  H 18          +54.9% ( 76.4%)    97.8%
 T-DIPOLE    0.0804        C  5 --  H 19          +42.7% ( 67.4%)    96.1%
 TRAVEL      0.1202        C  5 --  H 20           +1.3% ( 12.0%)     9.7%
 RED. MASS   0.5143        C  3 --  C  5           +1.0% ( 10.5%)     0.0%
 EFF. MASS   1.5096

 VIBRATION   60   60A       ATOM PAIR        ENERGY CONTRIBUTION    RADIAL
 FREQ.      3117.49        C  8 --  H 23          +97.1% ( 99.8%)   100.0%
 T-DIPOLE    0.2396        C  7 --  C  8           +1.4% ( 12.0%)    41.8%
 TRAVEL      0.1202        C  8 --  H 22           +1.2% ( 11.2%)    13.6%
 RED. MASS   0.9241        C  6 --  H 16           +0.2% (  4.5%)    99.9%
 EFF. MASS   1.4971

 VIBRATION   61   61A       ATOM PAIR        ENERGY CONTRIBUTION    RADIAL
 FREQ.      3147.91        C  8 --  H 22          +96.5% ( 99.5%)   100.0%
 T-DIPOLE    0.2590        C  7 --  C  8           +1.5% ( 12.5%)    51.1%
 TRAVEL      0.1191        C  8 --  H 23           +1.2% ( 11.2%)     9.7%
 RED. MASS   0.9127        C  7 --  H 21           +0.8% (  8.8%)    95.6%
 EFF. MASS   1.5108

 VIBRATION   62   62A       ATOM PAIR        ENERGY CONTRIBUTION    RADIAL
 FREQ.      3176.84        C  6 --  H 16          +40.6% ( 61.4%)    98.0%
 T-DIPOLE    0.0216        C  6 --  H 15          +31.5% ( 54.1%)    96.7%
 TRAVEL      0.1365        C  6 --  H 17          +27.4% ( 50.4%)    95.9%
 RED. MASS   0.3339        C  4 --  C  6           +0.3% (  5.2%)    97.8%
 EFF. MASS   1.1389

 VIBRATION   63   63A       ATOM PAIR        ENERGY CONTRIBUTION    RADIAL
 FREQ.      3178.32        C  5 --  H 19          +37.6% ( 59.1%)    97.6%
 T-DIPOLE    0.0931        C  5 --  H 18          +33.9% ( 56.0%)    97.1%
 TRAVEL      0.1366        C  5 --  H 20          +28.3% ( 51.2%)    96.0%
 RED. MASS   0.3306        C  3 --  C  5           +0.3% (  5.1%)    98.7%
 EFF. MASS   1.1367

 SYMMETRY NUMBER FOR POINT-GROUP C1  =  1


          SYSTEM IS A GROUND STATE


    NULL



          MOLECULE IS NOT LINEAR

          THERE ARE 63 GENUINE VIBRATIONS IN THIS SYSTEM
          THIS THERMODYNAMICS CALCULATION IS LIMITED TO
          MOLECULES WHICH HAVE NO INTERNAL ROTATIONS




                    CALCULATED THERMODYNAMIC PROPERTIES
                                          *
   TEMP. (K)   PARTITION FUNCTION   H.O.F.    ENTHALPY  HEAT CAPACITY ENTROPY
                                   KCAL/MOL   CAL/MOLE    CAL/K/MOL  CAL/K/MOL


 298.00  VIB.     0.1017D+04                  4718.1141    32.0313    29.5942
         ROT.     0.5526D+06                   888.2813     2.9808    29.2565
         INT.     0.5623D+09                  5606.3955    35.0121    58.8507
         TRA.     0.1371D+28                  1480.4688     4.9680    40.4094
         TOT.                      -28.463    7086.8643    39.9801    99.2601

 200.00  VIB.     0.7378D+02                  2143.6783    20.9057    19.2656
         ROT.     0.3038D+06                   596.1620     2.9808    28.0678
         INT.     0.2242D+08                  2739.8402    23.8865    47.3334
         TRA.     0.7536D+27                   993.6033     4.9680    38.4282
         TOT.                      -31.816    3733.4435    28.8545    85.7616

 210.00  VIB.     0.9659D+02                  2357.7857    21.9207    20.3100
         ROT.     0.3269D+06                   625.9700     2.9808    28.2133
         INT.     0.3158D+08                  2983.7557    24.9016    48.5233
         TRA.     0.8108D+27                  1043.2834     4.9680    38.6706
         TOT.                      -31.523    4027.0391    29.8696    87.1939

 220.00  VIB.     0.1264D+03                  2582.1945    22.9661    21.3537
         ROT.     0.3505D+06                   655.7781     2.9808    28.3519
         INT.     0.4430D+08                  3237.9726    25.9469    49.7057
         TRA.     0.8694D+27                  1092.9636     4.9680    38.9017
         TOT.                      -31.219    4330.9362    30.9150    88.6074

 230.00  VIB.     0.1652D+03                  2817.2108    24.0422    22.3983
         ROT.     0.3747D+06                   685.5862     2.9808    28.4844
         INT.     0.6192D+08                  3502.7971    27.0230    50.8827
         TRA.     0.9293D+27                  1142.6437     4.9680    39.1226
         TOT.                      -30.904    4645.4408    31.9910    90.0053

 240.00  VIB.     0.2160D+03                  3063.1385    25.1482    23.4448
         ROT.     0.3994D+06                   715.3943     2.9808    28.6113
         INT.     0.8627D+08                  3778.5329    28.1290    52.0561
         TRA.     0.9906D+27                  1192.3239     4.9680    39.3340
         TOT.                      -30.579    4970.8568    33.0970    91.3901

 250.00  VIB.     0.2822D+03                  3320.2687    26.2824    24.4943
         ROT.     0.4246D+06                   745.2024     2.9808    28.7330
         INT.     0.1198D+09                  4065.4711    29.2632    53.2272
         TRA.     0.1053D+28                  1242.0041     4.9680    39.5368
         TOT.                      -30.242    5307.4752    34.2312    92.7641

 260.00  VIB.     0.3687D+03                  3588.8721    27.4424    25.5476
         ROT.     0.4504D+06                   775.0105     2.9808    28.8499
         INT.     0.1660D+09                  4363.8826    30.4232    54.3975
         TRA.     0.1117D+28                  1291.6842     4.9680    39.7317
         TOT.                      -29.894    5655.5668    35.3912    94.1291

 270.00  VIB.     0.4816D+03                  3869.1929    28.6253    26.6054
         ROT.     0.4766D+06                   804.8186     2.9808    28.9624
         INT.     0.2295D+09                  4674.0115    31.6061    55.5678
         TRA.     0.1182D+28                  1341.3644     4.9680    39.9191
         TOT.                      -29.534    6015.3759    36.5742    95.4869

 280.00  VIB.     0.6290D+03                  4161.4444    29.8280    27.6681
         ROT.     0.5033D+06                   834.6267     2.9808    29.0708
         INT.     0.3166D+09                  4996.0711    32.8088    56.7389
         TRA.     0.1248D+28                  1391.0445     4.9680    40.0998
         TOT.                      -29.163    6387.1157    37.7768    96.8387

 290.00  VIB.     0.8216D+03                  4465.8065    31.0469    28.7360
         ROT.     0.5305D+06                   864.4348     2.9808    29.1754
         INT.     0.4359D+09                  5330.2413    34.0277    57.9114
         TRA.     0.1316D+28                  1440.7247     4.9680    40.2742
         TOT.                      -28.779    6770.9660    38.9957    98.1856

 300.00  VIB.     0.1073D+04                  4782.4238    32.2784    29.8093
         ROT.     0.5582D+06                   894.2429     2.9808    29.2765
         INT.     0.5992D+09                  5676.6667    35.2592    59.0857
         TRA.     0.1384D+28                  1490.4049     4.9680    40.4426
         TOT.                      -28.383    7167.0716    40.2273    99.5283

 310.00  VIB.     0.1403D+04                  5111.4058    33.5192    30.8879
         ROT.     0.5863D+06                   924.0510     2.9808    29.3742
         INT.     0.8224D+09                  6035.4568    36.5000    60.2621
         TRA.     0.1454D+28                  1540.0850     4.9680    40.6055
         TOT.                      -27.974    7575.5418    41.4680   100.8676

 320.00  VIB.     0.1833D+04                  5452.8271    34.7658    31.9718
         ROT.     0.6149D+06                   953.8591     2.9808    29.4688
         INT.     0.1127D+10                  6406.6863    37.7466    61.4406
         TRA.     0.1525D+28                  1589.7652     4.9680    40.7632
         TOT.                      -27.553    7996.4515    42.7146   102.2038

 330.00  VIB.     0.2397D+04                  5806.7293    36.0148    33.0607
         ROT.     0.6440D+06                   983.6672     2.9808    29.5606
         INT.     0.1544D+10                  6790.3965    38.9956    62.6212
         TRA.     0.1597D+28                  1639.4454     4.9680    40.9161
         TOT.                      -27.120    8429.8419    43.9637   103.5373

 340.00  VIB.     0.3136D+04                  6173.1221    37.2634    34.1544
         ROT.     0.6735D+06                  1013.4753     2.9808    29.6495
         INT.     0.2112D+10                  7186.5974    40.2442    63.8039
         TRA.     0.1670D+28                  1689.1255     4.9680    41.0644
         TOT.                      -26.674    8875.7230    45.2122   104.8683

 350.00  VIB.     0.4103D+04                  6551.9861    38.5086    35.2525
         ROT.     0.7034D+06                  1043.2834     2.9808    29.7360
         INT.     0.2886D+10                  7595.2695    41.4894    64.9885
         TRA.     0.1745D+28                  1738.8057     4.9680    41.2084
         TOT.                      -26.216    9334.0752    46.4575   106.1969

 360.00  VIB.     0.5372D+04                  6943.2749    39.7480    36.3547
         ROT.     0.7338D+06                  1073.0915     2.9808    29.8199
         INT.     0.3941D+10                  8016.3664    42.7288    66.1747
         TRA.     0.1820D+28                  1788.4859     4.9680    41.3484
         TOT.                      -25.745    9804.8523    47.6968   107.5230

 370.00  VIB.     0.7035D+04                  7346.9179    40.9791    37.4606
         ROT.     0.7646D+06                  1102.8996     2.9808    29.9016
         INT.     0.5379D+10                  8449.8175    43.9599    67.3622
         TRA.     0.1896D+28                  1838.1660     4.9680    41.4845
         TOT.                      -25.262   10287.9835    48.9279   108.8467

 380.00  VIB.     0.9219D+04                  7762.8226    42.2000    38.5697
         ROT.     0.7958D+06                  1132.7077     2.9808    29.9811
         INT.     0.7336D+10                  8895.5303    45.1808    68.5508
         TRA.     0.1974D+28                  1887.8462     4.9680    41.6170
         TOT.                      -24.766   10783.3765    50.1488   110.1677

 390.00  VIB.     0.1209D+05                  8190.8777    43.4089    39.6815
         ROT.     0.8274D+06                  1162.5158     2.9808    30.0585
         INT.     0.9999D+10                  9353.3935    46.3897    69.7400
         TRA.     0.2052D+28                  1937.5263     4.9680    41.7460
         TOT.                      -24.259   11290.9198    51.3577   111.4860

 400.00  VIB.     0.1585D+05                  8630.9549    44.6042    40.7956
         ROT.     0.8594D+06                  1192.3239     2.9808    30.1340
         INT.     0.1362D+11                  9823.2788    47.5850    70.9296
         TRA.     0.2131D+28                  1987.2065     4.9680    41.8718
         TOT.                      -23.739   11810.4853    52.5530   112.8014

   *: NOTE: HEATS OF FORMATION ARE RELATIVE TO THE
            ELEMENTS IN THEIR STANDARD STATE AT 298K
              (=  Standard Enthalpy of Formation).

            Hvib:  Zero-point energy is not included.
                   frequencies of less than zero cm-1 are not included.
            Hrot = (3/2)RT
            Htra = (3/2)RT + pV = (5/2)RT

            Heat capacity is Cp, not Cv

           For more information, see: HTTP://OpenMOPAC.net/Manual/thermochemistry.html


           FORCE CONSTANT IN CARTESIAN COORDINATES (Millidynes/A)

    ATOM   CHEMICAL       X               Y               Z
   NUMBER   SYMBOL  FORCE CONSTANT  FORCE CONSTANT  FORCE CONSTANT

      1       C        7.994333        7.975250        9.074293
      2       C        8.065084        8.164726        8.414594
      3       C        7.686184        8.455752        8.621015
      4       C        8.264898        8.540038        8.204642
      5       C        8.458155        8.359544        8.265437
      6       C        8.211652        8.329020        8.341701
      7       C        6.599666       13.152516        7.541904
      8       C        6.200204       12.917743        7.321825
      9       O        6.210000        6.086845        1.223069
     10       H        1.387372        1.286269        3.456974
     11       H        1.430225        1.023039        3.561433
     12       H        0.924849        1.544956        3.565668
     13       H        1.613041        1.151743        3.631645
     14       H        4.564641        1.139387        0.699172
     15       H        1.683803        1.252244        3.825230
     16       H        1.660956        1.394285        3.739021
     17       H        4.845981        1.216112        0.677436
     18       H        5.383399        0.662612        0.686364
     19       H        1.037206        5.030043        0.699835
     20       H        1.190851        1.570413        3.994115
     21       H        2.881174        1.984175        1.329689
     22       H        1.584287        1.396382        3.489840
     23       H        2.975204        2.134063        1.283220



 TOTAL CPU TIME:             2.97 SECONDS

 == MOPAC DONE ==
