 *******************************************************************************
 ** Site#: 14399           For non-commercial use only        Version 13.159M **
 *******************************************************************************
 ** Cite this work as: MOPAC2012, James J. P. Stewart, Stewart Computational  **
 ** Chemistry, Version 13.159M web: HTTP://OpenMOPAC.net  Days remaining:   6 **
 *******************************************************************************
 **                                                                           **
 **                                MOPAC2012                                  **
 **                                                                           **
 *******************************************************************************

                            PM3 CALCULATION RESULTS


 *******************************************************************************
 *  CALCULATION DONE:                                Mon Jun  2 11:11:54 2014  *
 *  PM3      - The PM3 Hamiltonian to be used
 *  PRECISE  - CRITERIA TO BE INCREASED BY 100 TIMES
 *  NOSYM    - POINT-GROUP SYMMETRY SET TO C1
 *  T=       - A TIME OF 172800.0 SECONDS REQUESTED
 *  DUMP=N   - RESTART FILE WRITTEN EVERY  7200.000 SECONDS
 *******************************************************************************
pm3  precise nosym
 InChI=1S/C6H10/c1-2-3-6-4-5-6/h4-6H,2-3H2,1H3

   ATOM   CHEMICAL          X               Y               Z
  NUMBER   SYMBOL      (ANGSTROMS)     (ANGSTROMS)     (ANGSTROMS)
 
     1       C          1.42050000  *  -0.12560000  *   0.28550000  *
     2       C          0.10650000  *   0.37810000  *  -0.31170000  *
     3       C         -1.08360000  *  -0.35690000  *   0.30590000  *
     4       C         -2.41860000  *   0.14090000  *  -0.23730000  *
     5       C          2.73680000  *   0.44670000  *  -0.52210000  *
     6       C          2.32390000  *  -0.75000000  *  -0.56580000  *
     7       H          1.60640000  *  -0.11340000  *   1.38350000  *
     8       H         -0.99930000  *  -1.44890000  *   0.09620000  *
     9       H         -1.08110000  *  -0.22200000  *   1.41290000  *
    10       H          0.07180000  *   0.26270000  *  -1.42210000  *
    11       H          0.02680000  *   1.46760000  *  -0.09010000  *
    12       H         -3.25360000  *  -0.42030000  *   0.24010000  *
    13       H         -2.48270000  *  -0.01560000  *  -1.33840000  *
    14       H         -2.55820000  *   1.22350000  *  -0.01550000  *
    15       H          2.62990000  *   1.09180000  *  -1.39180000  *
    16       H          2.95450000  *  -1.55860000  *  -0.20260000  *
 


          CARTESIAN COORDINATES 

    NO.       ATOM         X         Y         Z

     1         C        1.4205   -0.1256    0.2855
     2         C        0.1065    0.3781   -0.3117
     3         C       -1.0836   -0.3569    0.3059
     4         C       -2.4186    0.1409   -0.2373
     5         C        2.7368    0.4467   -0.5221
     6         C        2.3239   -0.7500   -0.5658
     7         H        1.6064   -0.1134    1.3835
     8         H       -0.9993   -1.4489    0.0962
     9         H       -1.0811   -0.2220    1.4129
    10         H        0.0718    0.2627   -1.4221
    11         H        0.0268    1.4676   -0.0901
    12         H       -3.2536   -0.4203    0.2401
    13         H       -2.4827   -0.0156   -1.3384
    14         H       -2.5582    1.2235   -0.0155
    15         H        2.6299    1.0918   -1.3918
    16         H        2.9545   -1.5586   -0.2026

  H: (PM3): J. J. P. STEWART, J. COMP. CHEM. 10, 209 (1989).
  C: (PM3): J. J. P. STEWART, J. COMP. CHEM. 10, 209 (1989).

           Empirical Formula: C6 H10  =    16 atoms



      MOLECULAR POINT GROUP   :   C1  


      RHF CALCULATION, NO. OF DOUBLY OCCUPIED LEVELS =   17

      Geometry optimization using EF

          DIAGONAL MATRIX USED AS START HESSIAN

 CYCLE:     1 TIME:   0.004 TIME LEFT:  2.00D  GRAD.:   294.705 HEAT: 119.8154
 CYCLE:     2 TIME:   0.004 TIME LEFT:  2.00D  GRAD.:   403.742 HEAT: 118.3273
 CYCLE:     3 TIME:   0.004 TIME LEFT:  2.00D  GRAD.:   158.715 HEAT: 80.73018
 CYCLE:     4 TIME:   0.007 TIME LEFT:  2.00D  GRAD.:   203.138 HEAT: 71.75006
 CYCLE:     5 TIME:   0.003 TIME LEFT:  2.00D  GRAD.:   186.208 HEAT: 67.31169
 CYCLE:     6 TIME:   0.006 TIME LEFT:  2.00D  GRAD.:    92.662 HEAT: 61.19568
 CYCLE:     7 TIME:   0.003 TIME LEFT:  2.00D  GRAD.:    58.018 HEAT: 59.16433
 CYCLE:     8 TIME:   0.006 TIME LEFT:  2.00D  GRAD.:    78.628 HEAT: 58.64673
 CYCLE:     9 TIME:   0.003 TIME LEFT:  2.00D  GRAD.:    58.040 HEAT: 57.58694
 CYCLE:    10 TIME:   0.006 TIME LEFT:  2.00D  GRAD.:    43.382 HEAT: 56.69825
 CYCLE:    11 TIME:   0.003 TIME LEFT:  2.00D  GRAD.:    41.064 HEAT: 55.99248
 CYCLE:    12 TIME:   0.003 TIME LEFT:  2.00D  GRAD.:    71.637 HEAT: 55.68446
 CYCLE:    13 TIME:   0.003 TIME LEFT:  2.00D  GRAD.:    43.230 HEAT: 54.44599
 CYCLE:    14 TIME:   0.003 TIME LEFT:  2.00D  GRAD.:    66.450 HEAT: 54.42986
 CYCLE:    15 TIME:   0.003 TIME LEFT:  2.00D  GRAD.:    40.967 HEAT: 53.59894
 CYCLE:    16 TIME:   0.003 TIME LEFT:  2.00D  GRAD.:    45.849 HEAT: 53.27145
 CYCLE:    17 TIME:   0.003 TIME LEFT:  2.00D  GRAD.:    30.327 HEAT: 52.66200
 CYCLE:    18 TIME:   0.004 TIME LEFT:  2.00D  GRAD.:    30.061 HEAT: 52.10315
 CYCLE:    19 TIME:   0.004 TIME LEFT:  2.00D  GRAD.:    31.092 HEAT: 51.46516
 CYCLE:    20 TIME:   0.003 TIME LEFT:  2.00D  GRAD.:    11.924 HEAT: 50.72141
 CYCLE:    21 TIME:   0.003 TIME LEFT:  2.00D  GRAD.:     8.422 HEAT: 50.57872
 CYCLE:    22 TIME:   0.003 TIME LEFT:  2.00D  GRAD.:     8.801 HEAT: 50.48625
 CYCLE:    23 TIME:   0.004 TIME LEFT:  2.00D  GRAD.:     8.966 HEAT: 50.37443
 CYCLE:    24 TIME:   0.005 TIME LEFT:  2.00D  GRAD.:    14.286 HEAT: 50.21336
 CYCLE:    25 TIME:   0.004 TIME LEFT:  2.00D  GRAD.:    17.415 HEAT: 50.08495
 CYCLE:    26 TIME:   0.004 TIME LEFT:  2.00D  GRAD.:    11.458 HEAT: 49.95030
 CYCLE:    27 TIME:   0.004 TIME LEFT:  2.00D  GRAD.:     6.279 HEAT: 49.86008
 CYCLE:    28 TIME:   0.005 TIME LEFT:  2.00D  GRAD.:     5.865 HEAT: 49.82600
 CYCLE:    29 TIME:   0.004 TIME LEFT:  2.00D  GRAD.:     4.469 HEAT: 49.79793
 CYCLE:    30 TIME:   0.003 TIME LEFT:  2.00D  GRAD.:     3.766 HEAT: 49.76993
 CYCLE:    31 TIME:   0.003 TIME LEFT:  2.00D  GRAD.:     2.593 HEAT: 49.75470
 CYCLE:    32 TIME:   0.003 TIME LEFT:  2.00D  GRAD.:     2.361 HEAT: 49.74194
 CYCLE:    33 TIME:   0.003 TIME LEFT:  2.00D  GRAD.:     2.088 HEAT: 49.73211
 CYCLE:    34 TIME:   0.005 TIME LEFT:  2.00D  GRAD.:     2.133 HEAT: 49.72505
 CYCLE:    35 TIME:   0.005 TIME LEFT:  2.00D  GRAD.:     1.980 HEAT: 49.71703
 CYCLE:    36 TIME:   0.003 TIME LEFT:  2.00D  GRAD.:     2.138 HEAT: 49.71069
 CYCLE:    37 TIME:   0.003 TIME LEFT:  2.00D  GRAD.:     1.839 HEAT: 49.70524
 CYCLE:    38 TIME:   0.003 TIME LEFT:  2.00D  GRAD.:     1.864 HEAT: 49.69935
 CYCLE:    39 TIME:   0.003 TIME LEFT:  2.00D  GRAD.:     1.966 HEAT: 49.69238
 CYCLE:    40 TIME:   0.003 TIME LEFT:  2.00D  GRAD.:     1.567 HEAT: 49.68681
 CYCLE:    41 TIME:   0.003 TIME LEFT:  2.00D  GRAD.:     1.166 HEAT: 49.68342
 CYCLE:    42 TIME:   0.004 TIME LEFT:  2.00D  GRAD.:     1.491 HEAT: 49.67966
 CYCLE:    43 TIME:   0.004 TIME LEFT:  2.00D  GRAD.:     2.245 HEAT: 49.67349
 CYCLE:    44 TIME:   0.003 TIME LEFT:  2.00D  GRAD.:     2.697 HEAT: 49.66424
 CYCLE:    45 TIME:   0.003 TIME LEFT:  2.00D  GRAD.:     2.865 HEAT: 49.64842
 CYCLE:    46 TIME:   0.003 TIME LEFT:  2.00D  GRAD.:     2.473 HEAT: 49.63889
 CYCLE:    47 TIME:   0.003 TIME LEFT:  2.00D  GRAD.:     2.818 HEAT: 49.62104
 CYCLE:    48 TIME:   0.003 TIME LEFT:  2.00D  GRAD.:     2.964 HEAT: 49.60985
 CYCLE:    49 TIME:   0.003 TIME LEFT:  2.00D  GRAD.:     2.552 HEAT: 49.58867
 CYCLE:    50 TIME:   0.003 TIME LEFT:  2.00D  GRAD.:     1.815 HEAT: 49.57957
 CYCLE:    51 TIME:   0.003 TIME LEFT:  2.00D  GRAD.:     1.653 HEAT: 49.57310
 CYCLE:    52 TIME:   0.003 TIME LEFT:  2.00D  GRAD.:     0.935 HEAT: 49.57238
 CYCLE:    53 TIME:   0.003 TIME LEFT:  2.00D  GRAD.:     0.489 HEAT: 49.57171
 CYCLE:    54 TIME:   0.003 TIME LEFT:  2.00D  GRAD.:     0.320 HEAT: 49.57126
 CYCLE:    55 TIME:   0.003 TIME LEFT:  2.00D  GRAD.:     0.511 HEAT: 49.57096
 CYCLE:    56 TIME:   0.003 TIME LEFT:  2.00D  GRAD.:     0.863 HEAT: 49.57028
 CYCLE:    57 TIME:   0.003 TIME LEFT:  2.00D  GRAD.:     1.171 HEAT: 49.56912
 CYCLE:    58 TIME:   0.003 TIME LEFT:  2.00D  GRAD.:     0.589 HEAT: 49.56777
 CYCLE:    59 TIME:   0.003 TIME LEFT:  2.00D  GRAD.:     0.810 HEAT: 49.56699
 CYCLE:    60 TIME:   0.003 TIME LEFT:  2.00D  GRAD.:     1.134 HEAT: 49.56611
 CYCLE:    61 TIME:   0.004 TIME LEFT:  2.00D  GRAD.:     1.670 HEAT: 49.56407
 CYCLE:    62 TIME:   0.004 TIME LEFT:  2.00D  GRAD.:     0.612 HEAT: 49.56200
 CYCLE:    63 TIME:   0.003 TIME LEFT:  2.00D  GRAD.:     0.454 HEAT: 49.56144
 CYCLE:    64 TIME:   0.003 TIME LEFT:  2.00D  GRAD.:     0.422 HEAT: 49.56124
 CYCLE:    65 TIME:   0.003 TIME LEFT:  2.00D  GRAD.:     0.320 HEAT: 49.56091
 CYCLE:    66 TIME:   0.003 TIME LEFT:  2.00D  GRAD.:     0.269 HEAT: 49.56079
 CYCLE:    67 TIME:   0.003 TIME LEFT:  2.00D  GRAD.:     0.518 HEAT: 49.56055
 CYCLE:    68 TIME:   0.003 TIME LEFT:  2.00D  GRAD.:     0.266 HEAT: 49.56044
 CYCLE:    69 TIME:   0.003 TIME LEFT:  2.00D  GRAD.:     0.173 HEAT: 49.56030
 CYCLE:    70 TIME:   0.004 TIME LEFT:  2.00D  GRAD.:     0.278 HEAT: 49.56017
 CYCLE:    71 TIME:   0.005 TIME LEFT:  2.00D  GRAD.:     0.446 HEAT: 49.55993
 CYCLE:    72 TIME:   0.004 TIME LEFT:  2.00D  GRAD.:     0.381 HEAT: 49.55967
 CYCLE:    73 TIME:   0.003 TIME LEFT:  2.00D  GRAD.:     0.789 HEAT: 49.55915
 CYCLE:    74 TIME:   0.003 TIME LEFT:  2.00D  GRAD.:     0.449 HEAT: 49.55884
 CYCLE:    75 TIME:   0.003 TIME LEFT:  2.00D  GRAD.:     0.416 HEAT: 49.55832
 CYCLE:    76 TIME:   0.003 TIME LEFT:  2.00D  GRAD.:     0.498 HEAT: 49.55794
 CYCLE:    77 TIME:   0.003 TIME LEFT:  2.00D  GRAD.:     0.719 HEAT: 49.55694
 CYCLE:    78 TIME:   0.003 TIME LEFT:  2.00D  GRAD.:     0.547 HEAT: 49.55630
 CYCLE:    79 TIME:   0.003 TIME LEFT:  2.00D  GRAD.:     0.596 HEAT: 49.55514
 CYCLE:    80 TIME:   0.003 TIME LEFT:  2.00D  GRAD.:     0.223 HEAT: 49.55487
 CYCLE:    81 TIME:   0.003 TIME LEFT:  2.00D  GRAD.:     0.168 HEAT: 49.55481
 CYCLE:    82 TIME:   0.003 TIME LEFT:  2.00D  GRAD.:     0.151 HEAT: 49.55473
 CYCLE:    83 TIME:   0.003 TIME LEFT:  2.00D  GRAD.:     0.106 HEAT: 49.55471
 CYCLE:    84 TIME:   0.003 TIME LEFT:  2.00D  GRAD.:     0.074 HEAT: 49.55470
 CYCLE:    85 TIME:   0.003 TIME LEFT:  2.00D  GRAD.:     0.033 HEAT: 49.55469

     RMS GRADIENT =  0.03329  IS LESS THAN CUTOFF =  0.05000



 -------------------------------------------------------------------------------
pm3  precise nosym
 InChI=1S/C6H10/c1-2-3-6-4-5-6/h4-6H,2-3H2,1H3



     GEOMETRY OPTIMISED USING EIGENVECTOR FOLLOWING (EF).     
     SCF FIELD WAS ACHIEVED                                   


                              PM3 CALCULATION
                                                       MOPAC2012 (Version: 13.159M)
                                                       Mon Jun  2 11:11:55 2014
                                                       No. of days left =   6




          FINAL HEAT OF FORMATION =         49.55469 KCAL/MOL =     207.33684 KJ/MOL


          TOTAL ENERGY            =       -863.02039 EV
          ELECTRONIC ENERGY       =      -3687.60932 EV  POINT GROUP:     C1  
          CORE-CORE REPULSION     =       2824.58893 EV
          COSMO AREA              =        140.90 SQUARE ANGSTROMS
          COSMO VOLUME            =        130.32 CUBIC ANGSTROMS

          GRADIENT NORM           =          0.03329
          IONIZATION POTENTIAL    =         10.019470 EV
          HOMO LUMO ENERGIES (EV) =        -10.019  0.918
          NO. OF FILLED LEVELS    =         17
          MOLECULAR WEIGHT        =         82.145

          MOLECULAR DIMENSIONS (Angstroms)

            Atom       Atom       Distance
            H    15    H    12     6.82454
            H    16    H    14     4.19135
            H     7    H    13     3.25047


          SCF CALCULATIONS        =         90
          COMPUTATION TIME        =          0.316 SECONDS




   ATOM   CHEMICAL          X               Y               Z
  NUMBER   SYMBOL      (ANGSTROMS)     (ANGSTROMS)     (ANGSTROMS)
 
     1       C          1.42707284  *   0.12112444  *   0.22823123  *
     2       C          0.07520831  *   0.48342578  *  -0.32821849  *
     3       C         -1.02387794  *  -0.34466950  *   0.31858730  *
     4       C         -2.38644494  *   0.02545074  *  -0.22236707  *
     5       C          2.65717918  *   0.37979749  *  -0.56708171  *
     6       C          2.28966411  *  -0.87658582  *  -0.46091226  *
     7       H          1.46159378  *   0.20178184  *   1.33266073  *
     8       H         -0.82834511  *  -1.42205134  *   0.15053274  *
     9       H         -1.00271425  *  -0.20711125  *   1.41808741  *
    10       H          0.05261446  *   0.34912867  *  -1.42794249  *
    11       H         -0.10790195  *   1.56257648  *  -0.15463036  *
    12       H         -3.17776335  *  -0.57280875  *   0.24693873  *
    13       H         -2.45032974  *  -0.13856886  *  -1.30635140  *
    14       H         -2.62144527  *   1.08240264  *  -0.03897863  *
    15       H          3.32306039  *   1.14082142  *  -0.92658486  *
    16       H          2.42693775  *  -1.92041979  *  -0.66895999  *

           Empirical Formula: C6 H10  =    16 atoms



      MOLECULAR POINT GROUP   :   C1  


                  EIGENVALUES  
 -39.57463 -34.57588 -26.94656 -21.46242 -20.21322 -19.93576 -17.46804 -16.10971
 -15.28040 -14.33477 -13.76739 -13.03795 -12.60093 -12.19190 -11.50889 -10.95296
 -10.01947   0.91828   2.64556   2.96855   3.52668   3.75842   3.81348   4.02679
   4.10342   4.18513   4.38558   4.52166   4.66093   4.83790   5.10686   5.18984
   5.27182   5.65127


              NET ATOMIC CHARGES AND DIPOLE CONTRIBUTIONS

  ATOM NO.   TYPE          CHARGE      No. of ELECS.   s-Pop       p-Pop       
    1          C          -0.073549        4.0735     1.16195     2.91160
    2          C          -0.094459        4.0945     1.15919     2.93526
    3          C          -0.093172        4.0932     1.15723     2.93594
    4          C          -0.109620        4.1096     1.13849     2.97113
    5          C          -0.174568        4.1746     1.21624     2.95832
    6          C          -0.172692        4.1727     1.21657     2.95612
    7          H           0.079470        0.9205     0.92053
    8          H           0.048797        0.9512     0.95120
    9          H           0.048192        0.9518     0.95181
   10          H           0.053097        0.9469     0.94690
   11          H           0.052877        0.9471     0.94712
   12          H           0.036394        0.9636     0.96361
   13          H           0.037208        0.9628     0.96279
   14          H           0.037177        0.9628     0.96282
   15          H           0.162444        0.8376     0.83756
   16          H           0.162402        0.8376     0.83760
 DIPOLE           X         Y         Z       TOTAL
 POINT-CHG.     0.191    -0.070    -0.073     0.216
 HYBRID         0.056    -0.022    -0.129     0.142
 SUM            0.247    -0.093    -0.202     0.332


          ATOMIC ORBITAL ELECTRON POPULATIONS

    Atom      s        px        py        pz   
    1  C   1.16195   0.90739   1.03777   0.96644
    2  C   1.15919   0.94330   0.99490   0.99707
    3  C   1.15723   0.94504   0.99502   0.99588
    4  C   1.13849   0.96330   1.00552   1.00231
    5  C   1.21624   0.97550   0.99036   0.99246
    6  C   1.21657   0.99951   0.96054   0.99607
    7  H   0.92053
    8  H   0.95120
    9  H   0.95181
   10  H   0.94690
   11  H   0.94712
   12  H   0.96361
   13  H   0.96279
   14  H   0.96282
   15  H   0.83756
   16  H   0.83760
 *******************************************************************************
 ** Site#: 14399           For non-commercial use only        Version 13.159M **
 *******************************************************************************
 ** Cite this work as: MOPAC2012, James J. P. Stewart, Stewart Computational  **
 ** Chemistry, Version 13.159M web: HTTP://OpenMOPAC.net  Days remaining:   6 **
 *******************************************************************************
 **                                                                           **
 **                                MOPAC2012                                  **
 **                                                                           **
 *******************************************************************************

                            PM3 CALCULATION RESULTS


 *******************************************************************************
 *  CALCULATION DONE:                                Mon Jun  2 11:11:55 2014  *
 *  PM3      - The PM3 Hamiltonian to be used
 *  OLDGEO   - PREVIOUS GEOMETRY TO BE USED
 *  PRECISE  - CRITERIA TO BE INCREASED BY 100 TIMES
 *  NOSYM    - POINT-GROUP SYMMETRY SET TO C1
 *  T=       - A TIME OF 172800.0 SECONDS REQUESTED
 *  DUMP=N   - RESTART FILE WRITTEN EVERY  7200.000 SECONDS
 *  THERMO   - THERMODYNAMIC QUANTITIES TO BE CALCULATED
 *******************************************************************************
oldgeo thermo nosym precise  pm3

   ATOM   CHEMICAL          X               Y               Z
  NUMBER   SYMBOL      (ANGSTROMS)     (ANGSTROMS)     (ANGSTROMS)
 
     1       C          1.42707284  *   0.12112444  *   0.22823123  *
     2       C          0.07520831  *   0.48342578  *  -0.32821849  *
     3       C         -1.02387794  *  -0.34466950  *   0.31858730  *
     4       C         -2.38644494  *   0.02545074  *  -0.22236707  *
     5       C          2.65717918  *   0.37979749  *  -0.56708171  *
     6       C          2.28966411  *  -0.87658582  *  -0.46091226  *
     7       H          1.46159378  *   0.20178184  *   1.33266073  *
     8       H         -0.82834511  *  -1.42205134  *   0.15053274  *
     9       H         -1.00271425  *  -0.20711125  *   1.41808741  *
    10       H          0.05261446  *   0.34912867  *  -1.42794249  *
    11       H         -0.10790195  *   1.56257648  *  -0.15463036  *
    12       H         -3.17776335  *  -0.57280875  *   0.24693873  *
    13       H         -2.45032974  *  -0.13856886  *  -1.30635140  *
    14       H         -2.62144527  *   1.08240264  *  -0.03897863  *
    15       H          3.32306039  *   1.14082142  *  -0.92658486  *
    16       H          2.42693775  *  -1.92041979  *  -0.66895999  *
 


          CARTESIAN COORDINATES 

    NO.       ATOM         X         Y         Z

     1         C        1.4271    0.1211    0.2282
     2         C        0.0752    0.4834   -0.3282
     3         C       -1.0239   -0.3447    0.3186
     4         C       -2.3864    0.0255   -0.2224
     5         C        2.6572    0.3798   -0.5671
     6         C        2.2897   -0.8766   -0.4609
     7         H        1.4616    0.2018    1.3327
     8         H       -0.8283   -1.4221    0.1505
     9         H       -1.0027   -0.2071    1.4181
    10         H        0.0526    0.3491   -1.4279
    11         H       -0.1079    1.5626   -0.1546
    12         H       -3.1778   -0.5728    0.2469
    13         H       -2.4503   -0.1386   -1.3064
    14         H       -2.6214    1.0824   -0.0390
    15         H        3.3231    1.1408   -0.9266
    16         H        2.4269   -1.9204   -0.6690

  H: (PM3): J. J. P. STEWART, J. COMP. CHEM. 10, 209 (1989).
  C: (PM3): J. J. P. STEWART, J. COMP. CHEM. 10, 209 (1989).

           Empirical Formula: C6 H10  =    16 atoms



      MOLECULAR POINT GROUP   :   C1  


      RHF CALCULATION, NO. OF DOUBLY OCCUPIED LEVELS =   17



          HEAT OF FORMATION =      49.554695 KCALS/MOLE


          INTERNAL COORDINATE DERIVATIVES

   NUMBER  ATOM       BOND         ANGLE      DIHEDRAL

     1       C     -0.009131    -0.001901    -0.006467
     2       C     -0.004570    -0.004384     0.000605
     3       C     -0.002779    -0.004902     0.000026
     4       C      0.002275    -0.005549     0.000214
     5       C      0.007251     0.005261     0.005051
     6       C     -0.002859     0.002231     0.003386
     7       H     -0.000854    -0.004318    -0.002568
     8       H      0.007575    -0.003251     0.006409
     9       H     -0.002107    -0.003724    -0.003132
    10       H      0.004037     0.003479     0.005864
    11       H      0.003114     0.000675    -0.004381
    12       H      0.005224    -0.001789    -0.002291
    13       H     -0.002378     0.006744     0.006160
    14       H     -0.007686     0.006222    -0.010100
    15       H      0.001824     0.010511    -0.002556
    16       H      0.001064    -0.005303     0.003781


          GRADIENT NORM =   0.03334


          TIME FOR SCF CALCULATION =    0.00

          TIME FOR DERIVATIVES     =    0.00

          MOLECULAR WEIGHT =   82.14



          ROTATIONAL CONSTANTS IN CM(-1)

          A =    0.40421785   B =    0.05615475   C =    0.05397470



           PRINCIPAL MOMENTS OF INERTIA IN UNITS OF 10**(-40)*GRAM-CM**2

          A =       69.2517   B =      498.4935   C =      518.6277


          ORIENTATION OF MOLECULE IN FORCE CALCULATION

    NO.       ATOM         X         Y         Z

     1          C      -1.0242   -0.3010    0.2785
     2          C       0.4819   -0.3010    0.2785
     3          C       1.0302    1.1172    0.2785
     4          C       2.5421    1.1258    0.2961
     5          C      -1.7723   -1.4789   -0.2371
     6          C      -1.7839   -0.4076   -0.9967
     7          H      -1.4439    0.2910    1.1156
     8          H       0.6577    1.6622   -0.6112
     9          H       0.6381    1.6735    1.1531
    10          H       0.8762   -0.8591   -0.5939
    11          H       0.8417   -0.8492    1.1719
    12          H       2.9351    2.1504    0.2972
    13          H       2.9605    0.6149   -0.5815
    14          H       2.9396    0.6207    1.1865
    15          H      -2.0541   -2.4942   -0.0337
    16          H      -2.0813    0.1157   -1.8852


    FIRST DERIVATIVES WILL BE USED IN THE CALCULATION OF SECOND DERIVATIVES

          ESTIMATED TIME TO COMPLETE CALCULATION =        0.87 SECONDS

    FOR POINT-GROUP C1   THERE ARE   1 UNIQUE SYMMETRY FUNCTIONS.

 STEP:   1 TIME =     0.01 SECS, INTEGRAL =      0.01 TIME LEFT: 172799.98
 STEP:   2 TIME =     0.01 SECS, INTEGRAL =      0.03 TIME LEFT: 172799.97
 STEP:   3 TIME =     0.01 SECS, INTEGRAL =      0.04 TIME LEFT: 172799.95
 STEP:   4 TIME =     0.01 SECS, INTEGRAL =      0.06 TIME LEFT: 172799.94
 STEP:   5 TIME =     0.01 SECS, INTEGRAL =      0.07 TIME LEFT: 172799.92
 STEP:   6 TIME =     0.01 SECS, INTEGRAL =      0.09 TIME LEFT: 172799.91
 STEP:   7 TIME =     0.01 SECS, INTEGRAL =      0.10 TIME LEFT: 172799.90
 STEP:   8 TIME =     0.01 SECS, INTEGRAL =      0.11 TIME LEFT: 172799.88
 STEP:   9 TIME =     0.02 SECS, INTEGRAL =      0.13 TIME LEFT: 172799.86
 STEP:  10 TIME =     0.02 SECS, INTEGRAL =      0.15 TIME LEFT: 172799.85
 STEP:  11 TIME =     0.02 SECS, INTEGRAL =      0.17 TIME LEFT: 172799.83
 STEP:  12 TIME =     0.02 SECS, INTEGRAL =      0.18 TIME LEFT: 172799.81
 STEP:  13 TIME =     0.02 SECS, INTEGRAL =      0.20 TIME LEFT: 172799.80
 STEP:  14 TIME =     0.02 SECS, INTEGRAL =      0.22 TIME LEFT: 172799.78
 STEP:  15 TIME =     0.02 SECS, INTEGRAL =      0.23 TIME LEFT: 172799.76
 STEP:  16 TIME =     0.01 SECS, INTEGRAL =      0.25 TIME LEFT: 172799.75
 STEP:  17 TIME =     0.02 SECS, INTEGRAL =      0.26 TIME LEFT: 172799.73
 STEP:  18 TIME =     0.02 SECS, INTEGRAL =      0.28 TIME LEFT: 172799.71
 STEP:  19 TIME =     0.02 SECS, INTEGRAL =      0.30 TIME LEFT: 172799.70
 STEP:  20 TIME =     0.02 SECS, INTEGRAL =      0.32 TIME LEFT: 172799.68
 STEP:  21 TIME =     0.01 SECS, INTEGRAL =      0.33 TIME LEFT: 172799.66
 STEP:  22 TIME =     0.02 SECS, INTEGRAL =      0.35 TIME LEFT: 172799.65
 STEP:  23 TIME =     0.02 SECS, INTEGRAL =      0.36 TIME LEFT: 172799.63
 STEP:  24 TIME =     0.01 SECS, INTEGRAL =      0.38 TIME LEFT: 172799.62
 STEP:  25 TIME =     0.01 SECS, INTEGRAL =      0.39 TIME LEFT: 172799.60
 STEP:  26 TIME =     0.01 SECS, INTEGRAL =      0.41 TIME LEFT: 172799.59
 STEP:  27 TIME =     0.01 SECS, INTEGRAL =      0.42 TIME LEFT: 172799.57
 STEP:  28 TIME =     0.01 SECS, INTEGRAL =      0.44 TIME LEFT: 172799.56
 STEP:  29 TIME =     0.01 SECS, INTEGRAL =      0.45 TIME LEFT: 172799.54
 STEP:  30 TIME =     0.01 SECS, INTEGRAL =      0.47 TIME LEFT: 172799.53
 STEP:  31 TIME =     0.02 SECS, INTEGRAL =      0.48 TIME LEFT: 172799.51
 STEP:  32 TIME =     0.02 SECS, INTEGRAL =      0.50 TIME LEFT: 172799.50
 STEP:  33 TIME =     0.01 SECS, INTEGRAL =      0.51 TIME LEFT: 172799.48
 STEP:  34 TIME =     0.02 SECS, INTEGRAL =      0.53 TIME LEFT: 172799.47
 STEP:  35 TIME =     0.02 SECS, INTEGRAL =      0.54 TIME LEFT: 172799.45
 STEP:  36 TIME =     0.02 SECS, INTEGRAL =      0.56 TIME LEFT: 172799.43
 STEP:  37 TIME =     0.02 SECS, INTEGRAL =      0.58 TIME LEFT: 172799.42
 STEP:  38 TIME =     0.02 SECS, INTEGRAL =      0.59 TIME LEFT: 172799.40
 STEP:  39 TIME =     0.01 SECS, INTEGRAL =      0.61 TIME LEFT: 172799.39
 STEP:  40 TIME =     0.02 SECS, INTEGRAL =      0.62 TIME LEFT: 172799.37
 STEP:  41 TIME =     0.02 SECS, INTEGRAL =      0.64 TIME LEFT: 172799.36
 STEP:  42 TIME =     0.02 SECS, INTEGRAL =      0.66 TIME LEFT: 172799.34
 STEP:  43 TIME =     0.01 SECS, INTEGRAL =      0.67 TIME LEFT: 172799.33
 STEP:  44 TIME =     0.02 SECS, INTEGRAL =      0.69 TIME LEFT: 172799.31
 STEP:  45 TIME =     0.01 SECS, INTEGRAL =      0.70 TIME LEFT: 172799.29
 STEP:  46 TIME =     0.01 SECS, INTEGRAL =      0.72 TIME LEFT: 172799.28
 STEP:  47 TIME =     0.02 SECS, INTEGRAL =      0.73 TIME LEFT: 172799.26
 STEP:  48 TIME =     0.02 SECS, INTEGRAL =      0.75 TIME LEFT: 172799.25

(To convert to Hartree/Bohr^2, multiply by (10^(-21) x N x a0^2)/(4.184 x 627.51) = 0.0642)


           FORCE MATRIX IN MILLIDYNES/ANGSTROM


                  C  1       C  2       C  3       C  4       C  5       C  6
 ------------------------------------------------------------------------------
     C    1  15.378953
     C    2   4.425948  14.502445
     C    3   0.668255   4.171999  14.381186
     C    4   0.051245   0.665415   4.472157  14.371893
     C    5   5.405509   0.544308   0.050053   0.010782  20.490379
     C    6   5.374150   0.543703   0.020046   0.001754  12.431792  20.479273
     H    7   4.420570   0.427391   0.029107   0.001758   0.435039   0.435792
     H    8   0.023724   0.442704   4.465372   0.437843   0.002352   0.004465
     H    9   0.032772   0.444577   4.448720   0.437485   0.002313   0.002536
     H   10   0.458161   4.456044   0.443412   0.027869   0.020427   0.018514
     H   11   0.421849   4.447297   0.448999   0.026435   0.014045   0.044587
     H   12   0.008984   0.051663   0.449680   4.752630   0.002299   0.000580
     H   13   0.001498   0.023383   0.463302   4.723120   0.001004   0.000737
     H   14   0.001435   0.023668   0.463352   4.722933   0.000689   0.000504
     H   15   0.289433   0.023435   0.003744   0.001277   5.552964   0.395057
     H   16   0.288002   0.021557   0.002828   0.001557   0.394783   5.554320


                  H  7       H  8       H  9       H 10       H 11       H 12
 ------------------------------------------------------------------------------
     H    7   4.985426
     H    8   0.002190   5.081429
     H    9   0.024320   0.573852   5.070602
     H   10   0.040397   0.024518   0.045720   5.069973
     H   11   0.023616   0.046567   0.024237   0.568542   5.053404
     H   12   0.000478   0.029669   0.029920   0.001784   0.001791   5.490502
     H   13   0.000691   0.024444   0.047850   0.019179   0.001552   0.573812
     H   14   0.000565   0.048001   0.024364   0.001587   0.018279   0.573519
     H   15   0.017892   0.000540   0.000817   0.002374   0.002707   0.000398
     H   16   0.018086   0.001064   0.000814   0.002419   0.003556   0.000485


                  H 13       H 14       H 15       H 16
 ------------------------------------------------------
     H   13   5.467695
     H   14   0.575967   5.467223
     H   15   0.000312   0.000205   5.897191
     H   16   0.000427   0.000353   0.026739   5.897377


          HEAT OF FORMATION =      49.554695 KCALS/MOLE

          ZERO POINT ENERGY      88.622 KCAL/MOL


           NORMAL COORDINATE ANALYSIS (Total motion = 1 Angstrom)


   Root No.       1         2         3         4         5         6         7         8

                 1 A       2 A       3 A       4 A       5 A       6 A       7 A       8 A   

                  64.9      91.1     205.7     211.9     350.4     429.2     466.3     774.6
  
           1   -0.0022   -0.0091    0.0033   -0.0222    0.0061   -0.0058    0.0536    0.0019
           2   -0.0188    0.0136   -0.0017    0.0116   -0.0020    0.0636   -0.0034   -0.0022
           3    0.0271   -0.0102    0.0043    0.0056    0.0366   -0.0007   -0.0437   -0.0020
           4   -0.0023   -0.0093    0.0035   -0.0240   -0.0020   -0.0111    0.0435    0.0090
           5   -0.0139    0.0054   -0.0097    0.0444    0.0113   -0.0407   -0.0062   -0.0034
           6    0.0566    0.0270    0.0108    0.0128   -0.0322   -0.0085    0.0135   -0.0128
           7   -0.0129   -0.0024   -0.0029    0.0068   -0.0361   -0.0178   -0.0314   -0.0001
           8   -0.0097    0.0026   -0.0069    0.0305    0.0213   -0.0527    0.0205    0.0044
           9   -0.0176    0.0585   -0.0253   -0.0069   -0.0107   -0.0019    0.0068   -0.0119
          10   -0.0131   -0.0011   -0.0040    0.0096   -0.0392   -0.0270   -0.0385    0.0000
          11    0.0038   -0.0061    0.0085   -0.0447   -0.0381    0.0023   -0.0271    0.0005
          12   -0.0307   -0.0486    0.0037   -0.0020    0.0005    0.0001    0.0004   -0.0002
          13    0.0087   -0.0017   -0.0103    0.0517    0.0088    0.0716    0.0059   -0.0237
          14    0.0035    0.0032    0.0064   -0.0259    0.0091    0.0227    0.0126    0.0055
          15   -0.0395    0.0029    0.0066   -0.0197    0.0125    0.0132    0.0083    0.0108
          16    0.0256    0.0249    0.0117   -0.0256    0.0649   -0.0020   -0.0235   -0.0217
          17    0.0359   -0.0185    0.0016   -0.0068    0.0051    0.0143    0.0080    0.0074
          18    0.0060   -0.0280   -0.0006    0.0088    0.0049    0.0003    0.0011    0.0137
          19   -0.0195   -0.0275    0.0044   -0.0470    0.0092   -0.0002    0.0737    0.0311
          20   -0.0526    0.0391    0.0076   -0.0239   -0.0051    0.0875    0.0171    0.0025
          21    0.0422   -0.0376   -0.0014    0.0172    0.0382   -0.0168   -0.0438    0.0093
          22   -0.0244   -0.0608    0.0087    0.0321   -0.0275   -0.0346   -0.0444   -0.0356
          23   -0.0573    0.0472   -0.0327    0.0326    0.0368   -0.0596    0.0106    0.0703
          24   -0.0421    0.1101   -0.0460   -0.0154   -0.0043   -0.0005    0.0068    0.0463
          25   -0.0117    0.0601   -0.0231    0.0239   -0.0362   -0.0329   -0.0351    0.0307
          26    0.0299   -0.0379    0.0130    0.0553    0.0105   -0.0654    0.0181   -0.0626
          27   -0.0425    0.1121   -0.0466   -0.0159   -0.0044    0.0008    0.0064    0.0474
          28    0.0162    0.0063    0.0095   -0.0180   -0.0448   -0.0431    0.1159    0.0487
          29   -0.0621    0.0156   -0.0332    0.0269    0.0607   -0.0507   -0.0293   -0.0645
          30    0.0957    0.0272    0.0291    0.0258   -0.0849   -0.0169    0.0624    0.0472
          31   -0.0147   -0.0310   -0.0024   -0.0325    0.0666   -0.0334    0.0050   -0.0208
          32    0.0397   -0.0090    0.0152    0.0573   -0.0234   -0.0689    0.0421    0.0650
          33    0.0943    0.0267    0.0286    0.0253   -0.0817   -0.0173    0.0603    0.0438
          34   -0.0217    0.0044   -0.0175    0.0639    0.0132   -0.0755    0.0141    0.0107
          35    0.0072   -0.0082    0.0134   -0.0659   -0.0591    0.0213   -0.0487   -0.0039
          36   -0.0803   -0.0296    0.2313    0.0508    0.0021   -0.0003   -0.0021    0.0145
          37   -0.0161   -0.0657    0.0183   -0.0145   -0.0582   -0.0034   -0.0697    0.0258
          38   -0.0321    0.0318    0.2016   -0.0230   -0.0626    0.0206   -0.0512   -0.0065
          39   -0.0113   -0.1015   -0.0975   -0.0263    0.0051    0.0011   -0.0015    0.0172
          40   -0.0014    0.0590   -0.0133   -0.0190   -0.0729   -0.0072   -0.0615   -0.0364
          41    0.0472   -0.0490   -0.1767   -0.1106   -0.0581    0.0218   -0.0496   -0.0016
          42   -0.0114   -0.0998   -0.0967   -0.0262    0.0049    0.0019   -0.0012    0.0162
          43    0.0032   -0.0132   -0.0283    0.1266   -0.0182    0.1749   -0.0128    0.1723
          44   -0.0048    0.0106    0.0124   -0.0518    0.0152   -0.0032    0.0253   -0.0732
          45   -0.0890    0.0243    0.0114   -0.0454    0.0048    0.0246    0.0458   -0.1112
          46    0.0452    0.0523    0.0275   -0.0708    0.1372   -0.0379   -0.1008    0.1855
          47    0.0745   -0.0421    0.0005   -0.0039    0.0061   -0.0175    0.0140   -0.0709
          48    0.0221   -0.0511   -0.0065    0.0256   -0.0184   -0.0063    0.0304   -0.1018


   Root No.       9        10        11        12        13        14        15        16

                 9 A      10 A      11 A      12 A      13 A      14 A      15 A      16 A   

                 789.0     886.4     893.9     931.9     950.1     957.0    1002.5    1080.0
  
           1    0.0037    0.0019   -0.0007    0.0014   -0.0093   -0.0118   -0.0061   -0.0037
           2   -0.0012    0.0045    0.0096   -0.0144   -0.0119    0.0085   -0.0049    0.0389
           3   -0.0031   -0.0141   -0.0002   -0.0186    0.0127    0.0033    0.0112   -0.0188
           4    0.0125   -0.0129    0.0084   -0.0080    0.0003    0.0025    0.0178    0.0187
           5   -0.0043    0.0061   -0.0070    0.0024   -0.0169   -0.0335    0.0007    0.0091
           6    0.0180   -0.0284    0.0181    0.0147   -0.0062   -0.0024    0.0154    0.0120
           7   -0.0007    0.0003    0.0004   -0.0007   -0.0016   -0.0003   -0.0007    0.0065
           8    0.0046   -0.0035    0.0056    0.0002    0.0103    0.0172   -0.0004   -0.0117
           9    0.0237    0.0134   -0.0078   -0.0012   -0.0022   -0.0005   -0.0133   -0.0056
          10   -0.0004   -0.0021    0.0003    0.0027    0.0092    0.0136   -0.0032   -0.0060
          11    0.0004   -0.0021    0.0039   -0.0008    0.0152    0.0347   -0.0102    0.0031
          12    0.0015    0.0100   -0.0076   -0.0102    0.0077    0.0020    0.0130    0.0031
          13   -0.0126   -0.0064   -0.0180   -0.0071   -0.0281    0.0189    0.0040    0.0085
          14    0.0069   -0.0195   -0.0132   -0.0032    0.0229   -0.0133   -0.0028    0.0051
          15    0.0024    0.0050    0.0020   -0.0020    0.0127   -0.0139   -0.0151    0.0308
          16   -0.0183    0.0152    0.0135   -0.0090    0.0261   -0.0175   -0.0215   -0.0187
          17    0.0017   -0.0026   -0.0106    0.0001   -0.0088    0.0035   -0.0006   -0.0364
          18   -0.0024    0.0226    0.0089   -0.0054   -0.0329    0.0111   -0.0061   -0.0222
          19    0.0090    0.0144   -0.0109   -0.0125   -0.0140   -0.0126   -0.0474   -0.0362
          20    0.0059    0.0800    0.1697   -0.0193   -0.0471    0.0397    0.0844   -0.1665
          21   -0.0058   -0.0602   -0.1189   -0.0221    0.0343   -0.0202   -0.0740    0.1095
          22    0.0582    0.0846   -0.0588   -0.0498    0.0230   -0.0229    0.0383   -0.0211
          23   -0.1124   -0.0068   -0.0014   -0.0280    0.0348    0.0025    0.0709   -0.0194
          24   -0.0774   -0.0264    0.0139    0.0022    0.0038    0.0018    0.0150    0.0018
          25   -0.0655   -0.0660    0.0501    0.0531   -0.0477   -0.0383   -0.0310   -0.0251
          26    0.1152    0.0116    0.0074    0.0321   -0.0282   -0.0094   -0.0630   -0.0547
          27   -0.0808   -0.0275    0.0144    0.0026    0.0007   -0.0024    0.0147    0.0077
          28   -0.0056    0.0394   -0.0278    0.0011   -0.0255   -0.0284   -0.0789   -0.0266
          29    0.0874   -0.0474    0.0397    0.0666   -0.0632   -0.0670   -0.0309    0.0018
          30   -0.0521    0.0314   -0.0298   -0.0240    0.0129    0.0056   -0.0084   -0.0048
          31    0.0483   -0.0938    0.0475   -0.0133    0.0286   -0.0206    0.1955    0.0690
          32   -0.0886    0.0489   -0.0542   -0.0568    0.0260   -0.0480    0.0783    0.0089
          33   -0.0514    0.0317   -0.0289   -0.0213    0.0097   -0.0024   -0.0077   -0.0075
          34    0.0135   -0.0229    0.0279   -0.0049    0.1006    0.2183   -0.0528    0.0142
          35   -0.0053    0.0065   -0.0073    0.0024   -0.0212   -0.0475    0.0097   -0.0061
          36   -0.0287   -0.0367    0.0259    0.0250   -0.0153   -0.0015   -0.0195   -0.0027
          37   -0.0692   -0.0795    0.0493    0.0754   -0.0788   -0.0939   -0.0447   -0.0372
          38   -0.0016    0.0076   -0.0085    0.0032   -0.0233   -0.0537    0.0113   -0.0111
          39   -0.0328   -0.0352    0.0247    0.0243   -0.0143   -0.0008   -0.0203   -0.0041
          40    0.0563    0.0958   -0.0767   -0.0615    0.0165   -0.0701    0.0882   -0.0101
          41   -0.0096    0.0062   -0.0080    0.0031   -0.0227   -0.0536    0.0125   -0.0106
          42   -0.0316   -0.0324    0.0225    0.0225   -0.0173   -0.0085   -0.0168   -0.0027
          43    0.0868    0.0067    0.0127    0.1318    0.1888   -0.0831    0.0020   -0.0788
          44   -0.0323   -0.0299   -0.0545   -0.0010   -0.0346    0.0285    0.0139   -0.0082
          45   -0.0557   -0.0265   -0.1586    0.2033    0.0238    0.0551    0.0678   -0.1532
          46    0.0566    0.0686   -0.0605    0.1268   -0.1516    0.0877    0.0456    0.0883
          47   -0.0560    0.1268    0.0570    0.1858    0.0500    0.0061    0.0303    0.1689
          48   -0.0617    0.0818    0.0741    0.0580    0.0605   -0.0226   -0.0110    0.0632


   Root No.      17        18        19        20        21        22        23        24

                17 A      18 A      19 A      20 A      21 A      22 A      23 A      24 A   

                1110.0    1123.7    1127.4    1135.1    1143.1    1153.9    1219.5    1246.5
  
           1   -0.0356   -0.0179   -0.0074   -0.0058   -0.0269    0.0002   -0.0104   -0.0058
           2    0.0093    0.0470   -0.0134    0.0035    0.0121    0.0411    0.0174    0.0009
           3    0.0299   -0.0045    0.0205    0.0094    0.0217   -0.0247    0.0021   -0.0301
           4    0.0283    0.0383    0.0024    0.0042    0.0222    0.0028   -0.0277   -0.0291
           5   -0.0002    0.0144   -0.0243   -0.0032   -0.0299   -0.0356    0.0028   -0.0261
           6   -0.0311   -0.0008   -0.0109   -0.0257    0.0056    0.0036    0.0176   -0.0016
           7   -0.0270    0.0376    0.0176    0.0214    0.0052   -0.0279   -0.0136   -0.0244
           8   -0.0015   -0.0201    0.0169    0.0005    0.0241    0.0425   -0.0226   -0.0200
           9    0.0251    0.0095    0.0322    0.0100   -0.0314    0.0092   -0.0039    0.0004
          10    0.0284   -0.0367   -0.0222   -0.0215   -0.0091    0.0228    0.0036    0.0002
          11   -0.0098    0.0084   -0.0012    0.0034   -0.0093   -0.0195    0.0094    0.0111
          12   -0.0123   -0.0125   -0.0300    0.0173    0.0194   -0.0049   -0.0018    0.0009
          13    0.0024   -0.0368    0.0152   -0.0019    0.0012   -0.0169   -0.0058    0.0078
          14    0.0012   -0.0337    0.0145   -0.0019   -0.0007   -0.0229   -0.0135   -0.0001
          15   -0.0065   -0.0341    0.0081   -0.0069   -0.0056   -0.0133   -0.0201    0.0181
          16   -0.0065    0.0214   -0.0167   -0.0031   -0.0059    0.0148   -0.0005    0.0125
          17   -0.0074    0.0033   -0.0106   -0.0066   -0.0093   -0.0013   -0.0140    0.0164
          18   -0.0118    0.0284   -0.0230   -0.0075   -0.0101    0.0203   -0.0093    0.0167
          19   -0.0466   -0.0730    0.0229    0.0580   -0.0061    0.0357    0.3851   -0.1053
          20    0.0421   -0.0533    0.0356    0.0179    0.0118   -0.0698    0.0903   -0.0619
          21    0.0001    0.0379   -0.0007    0.0279    0.0308    0.0696    0.1430   -0.0333
          22   -0.1046    0.0994    0.2142   -0.1127    0.0110   -0.0207    0.0618    0.0949
          23   -0.1133   -0.0168    0.0780   -0.1214    0.1068    0.0537    0.0353    0.0620
          24   -0.0114   -0.0138   -0.0125   -0.0083    0.0156    0.0118    0.0011    0.0017
          25   -0.0977   -0.0135   -0.0029    0.2357    0.0955   -0.0335   -0.0030    0.1229
          26    0.0190   -0.0513    0.0790    0.1639    0.0254    0.0856   -0.0298    0.0839
          27   -0.0203    0.0057   -0.0163    0.0015    0.0076   -0.0186    0.0059   -0.0014
          28    0.1841    0.0561   -0.0105   -0.0558    0.1745   -0.1058    0.0578    0.1138
          29    0.0147    0.0142   -0.0768   -0.1076    0.0668   -0.1165    0.1011    0.0742
          30    0.0304    0.0065    0.0179    0.0132    0.0113    0.0060   -0.0038   -0.0030
          31    0.0640    0.0386    0.0064    0.0550   -0.0798    0.0430    0.0911    0.1402
          32    0.0969    0.0101    0.0039    0.0861   -0.1292   -0.0349    0.0618    0.0853
          33    0.0158   -0.0021    0.0070    0.0091   -0.0144   -0.0120    0.0078   -0.0013
          34    0.0170   -0.0153   -0.0518   -0.0246   -0.0579   -0.0520    0.0587    0.0771
          35   -0.0056   -0.0025    0.0116    0.0044    0.0113    0.0127   -0.0114   -0.0155
          36    0.0153    0.0097    0.0283   -0.0045   -0.0266    0.0083    0.0008    0.0011
          37    0.1101   -0.0446    0.0851   -0.0870   -0.0581    0.1105    0.0021    0.0121
          38    0.0044   -0.0212    0.0065   -0.0002    0.0173    0.0301   -0.0065    0.0034
          39    0.0187    0.0016    0.0195   -0.0105   -0.0208    0.0096    0.0049    0.0084
          40    0.0050   -0.1278   -0.1288    0.0084    0.0880    0.0707   -0.0048    0.0165
          41    0.0041   -0.0189    0.0114   -0.0059    0.0132    0.0317   -0.0052    0.0030
          42    0.0083    0.0131    0.0256   -0.0012   -0.0142    0.0029   -0.0049   -0.0081
          43   -0.0098    0.0422   -0.0209    0.0016   -0.0090    0.0069   -0.0009   -0.0077
          44    0.0087   -0.0297    0.0164    0.0003    0.0047   -0.0225   -0.0075   -0.0025
          45    0.0153    0.0985   -0.0323    0.0107    0.0085    0.0237    0.0221   -0.0187
          46   -0.0033   -0.0331    0.0182    0.0013    0.0014   -0.0039    0.0005   -0.0027
          47    0.0282   -0.0597    0.0516    0.0141    0.0274   -0.0205    0.0171   -0.0194
          48    0.0078    0.0093    0.0016    0.0029    0.0087    0.0154    0.0076    0.0015


   Root No.      25        26        27        28        29        30        31        32

                25 A      26 A      27 A      28 A      29 A      30 A      31 A      32 A   

                1354.1    1386.2    1408.9    1411.0    1412.9    1428.4    1458.9    1925.2
  
           1   -0.0231    0.0120   -0.0011    0.0062   -0.0052    0.0215    0.1049   -0.0542
           2   -0.0134    0.0090   -0.0005    0.0001   -0.0005    0.0123    0.0428   -0.0352
           3   -0.0256    0.0102   -0.0001    0.0041   -0.0036    0.0137    0.0526   -0.0482
           4   -0.0316    0.0121    0.0009   -0.0039    0.0023   -0.0006   -0.0855    0.0102
           5   -0.0218   -0.0200    0.0001    0.0295   -0.0231   -0.0011   -0.0268    0.0023
           6    0.0029   -0.0014    0.0000   -0.0004    0.0004   -0.0018   -0.0079    0.0026
           7    0.0444    0.0036    0.0006   -0.0088    0.0097   -0.0499    0.0361    0.0011
           8    0.0289   -0.0228   -0.0003   -0.0268    0.0259    0.0074    0.0215    0.0002
           9    0.0000    0.0004   -0.0014    0.0000    0.0000   -0.0005    0.0006   -0.0001
          10    0.0171    0.0182   -0.0006    0.0109   -0.0164    0.0592   -0.0203   -0.0004
          11   -0.0068   -0.0010   -0.0024   -0.0160   -0.0238    0.0012   -0.0003   -0.0001
          12    0.0001    0.0004   -0.0412    0.0012    0.0010    0.0004   -0.0005    0.0000
          13    0.0111   -0.0042    0.0002   -0.0023    0.0020   -0.0062   -0.0226    0.0135
          14   -0.0009    0.0004    0.0000    0.0007   -0.0006    0.0016    0.0108    0.1554
          15    0.0176   -0.0078    0.0004   -0.0029    0.0025   -0.0113   -0.0444   -0.0832
          16    0.0105   -0.0042    0.0002   -0.0016    0.0014   -0.0058   -0.0219    0.0164
          17    0.0167   -0.0078    0.0004   -0.0027    0.0023   -0.0113   -0.0461   -0.1296
          18    0.0065   -0.0016    0.0000   -0.0011    0.0008   -0.0014   -0.0026    0.1188
          19    0.0361   -0.0232    0.0006   -0.0012    0.0029   -0.0285   -0.1085    0.0329
          20   -0.0062   -0.0039    0.0004    0.0042   -0.0027   -0.0027   -0.0137   -0.0219
          21   -0.0011    0.0021    0.0001   -0.0024    0.0019   -0.0001   -0.0104   -0.0316
          22   -0.0908   -0.0598   -0.0026   -0.0189    0.0203    0.1106   -0.0572    0.0006
          23   -0.0247    0.1175   -0.0006    0.0713   -0.0866   -0.0711   -0.0318    0.0002
          24    0.0208    0.0974   -0.0013    0.0556   -0.0628   -0.1000    0.0061    0.0006
          25   -0.0963   -0.0548    0.0002   -0.0166    0.0169    0.1105   -0.0567    0.0012
          26   -0.0304    0.1191    0.0018    0.0710   -0.0869   -0.0677   -0.0296    0.0004
          27   -0.0219   -0.1003   -0.0037   -0.0567    0.0644    0.1027   -0.0081   -0.0005
          28    0.0728   -0.0651    0.0053    0.0448   -0.0355   -0.0020    0.1319   -0.0142
          29    0.0103    0.1170    0.0051   -0.0991    0.0766    0.0031    0.0270   -0.0043
          30    0.0258   -0.1074   -0.0017    0.0897   -0.0691   -0.0049    0.0494   -0.0046
          31    0.1001   -0.0803   -0.0069    0.0444   -0.0340   -0.0170    0.0741    0.0071
          32    0.0093    0.1194   -0.0037   -0.1012    0.0786    0.0023    0.0182   -0.0025
          33   -0.0277    0.1053   -0.0001   -0.0859    0.0662    0.0068   -0.0361   -0.0010
          34   -0.1359   -0.0363    0.0060    0.0680    0.0983   -0.1246    0.0208   -0.0003
          35    0.0439    0.0167   -0.0037   -0.0268   -0.0499    0.0599   -0.0127   -0.0002
          36   -0.0012   -0.0023    0.4148   -0.0088   -0.0100    0.0020    0.0034    0.0000
          37   -0.1054   -0.0646   -0.1370   -0.0600    0.0081   -0.1371    0.0364    0.0000
          38   -0.0133    0.0070   -0.1979    0.1343    0.1591   -0.0257    0.0015    0.0001
          39   -0.0441   -0.0368    0.0374   -0.1101   -0.0902   -0.0611    0.0207    0.0000
          40   -0.1065   -0.0663    0.1322   -0.0688   -0.0016   -0.1358    0.0398   -0.0001
          41   -0.0124    0.0054    0.2303    0.1250    0.1480   -0.0215    0.0051   -0.0001
          42    0.0418    0.0347    0.0596    0.1054    0.0866    0.0588   -0.0193    0.0000
          43   -0.0063    0.0018   -0.0001    0.0016   -0.0014    0.0034    0.0139    0.0642
          44   -0.0015    0.0010    0.0000    0.0005   -0.0004    0.0022    0.0133    0.2260
          45   -0.0088    0.0023   -0.0001    0.0012   -0.0010    0.0025    0.0040   -0.0416
          46   -0.0051    0.0026   -0.0002    0.0006   -0.0005    0.0040    0.0153    0.0678
          47   -0.0072    0.0020    0.0000    0.0006   -0.0004    0.0016    0.0002   -0.1135
          48   -0.0025    0.0021   -0.0001    0.0002   -0.0002    0.0036    0.0158    0.1984


   Root No.      33        34        35        36        37        38        39        40

                33 A      34 A      35 A      36 A      37 A      38 A      39 A      40 A   

                2946.6    2960.1    2972.9    3031.6    3036.5    3078.4    3084.5    3181.4
  
           1   -0.0021   -0.0024    0.0183    0.0007    0.0000    0.0000    0.0000    0.0000
           2    0.0029    0.0035   -0.0287   -0.0005    0.0001    0.0000    0.0000    0.0000
           3    0.0041    0.0049   -0.0406   -0.0007   -0.0001    0.0000    0.0000    0.0000
           4    0.0004    0.0003    0.0000    0.0181   -0.0052    0.0000    0.0004    0.0002
           5    0.0002    0.0001    0.0006   -0.0260    0.0083    0.0000    0.0001   -0.0001
           6   -0.0304   -0.0239   -0.0147   -0.0007    0.0000    0.0002    0.0000    0.0000
           7   -0.0005    0.0006    0.0005   -0.0057   -0.0175    0.0000    0.0017   -0.0004
           8    0.0005   -0.0007   -0.0003    0.0076    0.0252    0.0001   -0.0026   -0.0002
           9    0.0251   -0.0306   -0.0029   -0.0005   -0.0015   -0.0030    0.0001    0.0000
          10    0.0000    0.0000    0.0000   -0.0001   -0.0004    0.0006    0.0012   -0.0245
          11    0.0000    0.0000    0.0000   -0.0012   -0.0037   -0.0006   -0.0477   -0.0019
          12   -0.0015    0.0015    0.0000    0.0000    0.0002   -0.0545    0.0005   -0.0002
          13    0.0000    0.0000    0.0004    0.0001    0.0000    0.0000    0.0000    0.0000
          14   -0.0001   -0.0001    0.0008    0.0000    0.0000    0.0000    0.0000    0.0000
          15    0.0001    0.0002   -0.0011    0.0000    0.0000    0.0000    0.0000    0.0000
          16    0.0002    0.0001    0.0005    0.0000    0.0000    0.0000    0.0000    0.0000
          17    0.0002    0.0002   -0.0013   -0.0001    0.0000    0.0000    0.0000    0.0000
          18    0.0000    0.0000    0.0004    0.0000    0.0000    0.0000    0.0000    0.0000
          19    0.0236    0.0278   -0.2412   -0.0049    0.0005    0.0001    0.0000    0.0000
          20   -0.0360   -0.0433    0.3478    0.0057    0.0012   -0.0003   -0.0002    0.0000
          21   -0.0521   -0.0616    0.4922    0.0089    0.0007   -0.0003   -0.0002    0.0000
          22   -0.0649    0.0771    0.0057    0.0349    0.1057    0.0114   -0.0120   -0.0019
          23    0.0923   -0.1154   -0.0097   -0.0504   -0.1561   -0.0118    0.0139    0.0013
          24   -0.1487    0.1791    0.0129    0.0945    0.2925    0.0181   -0.0280   -0.0025
          25    0.0709   -0.0852   -0.0078    0.0346    0.1053   -0.0111   -0.0120   -0.0020
          26   -0.0988    0.1240    0.0153   -0.0481   -0.1508    0.0110    0.0136    0.0013
          27   -0.1544    0.1874    0.0211   -0.0879   -0.2741    0.0159    0.0265    0.0024
          28   -0.0825   -0.0634   -0.0388   -0.1179    0.0342    0.0015    0.0003   -0.0012
          29    0.1155    0.0938    0.0503    0.1665   -0.0493   -0.0003    0.0008    0.0010
          30    0.1771    0.1383    0.0746    0.2982   -0.0884   -0.0017    0.0007    0.0020
          31    0.0776    0.0597    0.0421   -0.0994    0.0296   -0.0012    0.0004   -0.0010
          32   -0.1178   -0.0956   -0.0625    0.1545   -0.0474    0.0001    0.0007    0.0009
          33    0.1893    0.1479    0.0980   -0.2906    0.0883   -0.0013   -0.0007   -0.0020
          34    0.0000   -0.0001    0.0000    0.0019    0.0095    0.0018    0.1496    0.1022
          35    0.0002   -0.0003   -0.0002    0.0078    0.0337    0.0038    0.3959    0.3193
          36   -0.0003    0.0003    0.0000    0.0000    0.0001   -0.0286    0.0006    0.0002
          37   -0.0030    0.0022   -0.0002   -0.0025   -0.0044   -0.1627   -0.0838    0.1024
          38    0.0055   -0.0063   -0.0004    0.0020    0.0051    0.2133    0.0862   -0.1495
          39    0.0094   -0.0103   -0.0005    0.0050    0.0112    0.3396    0.1912   -0.2564
          40    0.0028   -0.0019    0.0002   -0.0026   -0.0052    0.1533   -0.0813    0.0961
          41   -0.0053    0.0061    0.0003    0.0023    0.0066   -0.2098    0.0877   -0.1475
          42    0.0095   -0.0101   -0.0003   -0.0055   -0.0139    0.3417   -0.1983    0.2593
          43   -0.0002   -0.0003    0.0025    0.0002   -0.0001    0.0000    0.0000    0.0000
          44   -0.0002   -0.0003    0.0040    0.0001   -0.0002    0.0000    0.0000   -0.0001
          45    0.0000    0.0000   -0.0005    0.0000    0.0000    0.0000    0.0000    0.0000
          46   -0.0001   -0.0001    0.0027    0.0000    0.0000    0.0000    0.0000    0.0000
          47    0.0000    0.0001   -0.0019    0.0001    0.0001    0.0000    0.0000   -0.0001
          48   -0.0001   -0.0002    0.0037   -0.0002   -0.0001    0.0000    0.0000    0.0001


   Root No.      41        42

                41 A      42 A   

                3267.0    3303.6
  
           1    0.0000    0.0028
           2    0.0003    0.0025
           3   -0.0002    0.0035
           4    0.0000    0.0000
           5    0.0001    0.0000
           6    0.0000    0.0001
           7    0.0000    0.0000
           8    0.0000    0.0000
           9    0.0000    0.0000
          10    0.0000    0.0000
          11    0.0000    0.0000
          12    0.0000    0.0000
          13   -0.0102   -0.0111
          14   -0.0369   -0.0478
          15    0.0074    0.0133
          16    0.0108   -0.0120
          17   -0.0189    0.0283
          18    0.0321   -0.0407
          19    0.0000    0.0016
          20    0.0007   -0.0003
          21   -0.0004   -0.0004
          22    0.0000    0.0000
          23    0.0000   -0.0001
          24   -0.0001    0.0002
          25    0.0000    0.0000
          26    0.0000   -0.0002
          27    0.0000   -0.0002
          28    0.0000    0.0004
          29    0.0000    0.0000
          30    0.0000   -0.0002
          31    0.0000   -0.0002
          32   -0.0001    0.0003
          33    0.0003   -0.0004
          34    0.0000    0.0000
          35    0.0001    0.0000
          36    0.0000    0.0000
          37    0.0000    0.0000
          38   -0.0001    0.0000
          39   -0.0001    0.0000
          40    0.0000    0.0000
          41    0.0000    0.0000
          42    0.0001   -0.0001
          43    0.1202    0.1165
          44    0.4361    0.4201
          45   -0.0883   -0.0836
          46   -0.1267    0.1236
          47    0.2250   -0.2168
          48   -0.3798    0.3691


           MASS-WEIGHTED COORDINATE ANALYSIS (NORMAL COORDINATES)


   Root No.       1         2         3         4         5         6         7         8

                 1 A       2 A       3 A       4 A       5 A       6 A       7 A       8 A   

                  64.9      91.1     205.7     211.9     350.4     429.2     466.3     774.6
  
           1   -0.0176   -0.0729    0.0276   -0.1720    0.0459   -0.0397    0.4116    0.0168
           2   -0.1523    0.1083   -0.0141    0.0896   -0.0153    0.4331   -0.0260   -0.0190
           3    0.2198   -0.0813    0.0361    0.0435    0.2745   -0.0044   -0.3357   -0.0179
           4   -0.0186   -0.0738    0.0291   -0.1859   -0.0146   -0.0758    0.3344    0.0793
           5   -0.1127    0.0427   -0.0804    0.3433    0.0847   -0.2770   -0.0478   -0.0296
           6    0.4589    0.2153    0.0893    0.0991   -0.2412   -0.0576    0.1034   -0.1127
           7   -0.1049   -0.0188   -0.0245    0.0529   -0.2707   -0.1212   -0.2412   -0.0013
           8   -0.0790    0.0210   -0.0569    0.2356    0.1596   -0.3584    0.1573    0.0389
           9   -0.1430    0.4662   -0.2100   -0.0530   -0.0802   -0.0133    0.0519   -0.1045
          10   -0.1059   -0.0087   -0.0328    0.0744   -0.2936   -0.1838   -0.2958    0.0000
          11    0.0312   -0.0487    0.0702   -0.3459   -0.2856    0.0159   -0.2084    0.0041
          12   -0.2489   -0.3869    0.0307   -0.0152    0.0035    0.0004    0.0030   -0.0017
          13    0.0702   -0.0139   -0.0855    0.3995    0.0663    0.4876    0.0456   -0.2082
          14    0.0285    0.0252    0.0531   -0.2007    0.0681    0.1544    0.0969    0.0481
          15   -0.3202    0.0228    0.0550   -0.1524    0.0938    0.0898    0.0640    0.0952
          16    0.2076    0.1988    0.0975   -0.1978    0.4866   -0.0139   -0.1801   -0.1907
          17    0.2913   -0.1472    0.0133   -0.0525    0.0382    0.0972    0.0613    0.0650
          18    0.0485   -0.2234   -0.0049    0.0679    0.0369    0.0021    0.0082    0.1202
          19   -0.0459   -0.0635    0.0107   -0.1054    0.0200   -0.0004    0.1639    0.0792
          20   -0.1235    0.0902    0.0183   -0.0534   -0.0111    0.1726    0.0381    0.0063
          21    0.0991   -0.0868   -0.0034    0.0385    0.0830   -0.0332   -0.0975    0.0238
          22   -0.0574   -0.1403    0.0209    0.0718   -0.0598   -0.0682   -0.0988   -0.0908
          23   -0.1345    0.1090   -0.0786    0.0730    0.0799   -0.1176    0.0235    0.1791
          24   -0.0989    0.2543   -0.1105   -0.0345   -0.0094   -0.0009    0.0151    0.1181
          25   -0.0275    0.1387   -0.0554    0.0535   -0.0787   -0.0648   -0.0780    0.0783
          26    0.0703   -0.0874    0.0313    0.1240    0.0229   -0.1289    0.0404   -0.1596
          27   -0.0998    0.2587   -0.1120   -0.0355   -0.0096    0.0017    0.0143    0.1208
          28    0.0382    0.0145    0.0227   -0.0403   -0.0972   -0.0850    0.2577    0.1241
          29   -0.1460    0.0360   -0.0799    0.0603    0.1318   -0.1000   -0.0652   -0.1644
          30    0.2249    0.0629    0.0700    0.0578   -0.1844   -0.0333    0.1388    0.1202
          31   -0.0346   -0.0715   -0.0058   -0.0729    0.1446   -0.0658    0.0112   -0.0530
          32    0.0934   -0.0208    0.0366    0.1283   -0.0508   -0.1358    0.0936    0.1655
          33    0.2215    0.0617    0.0687    0.0566   -0.1775   -0.0342    0.1342    0.1115
          34   -0.0510    0.0102   -0.0421    0.1431    0.0288   -0.1489    0.0313    0.0273
          35    0.0169   -0.0190    0.0323   -0.1476   -0.1284    0.0419   -0.1084   -0.0099
          36   -0.1886   -0.0684    0.5563    0.1139    0.0046   -0.0007   -0.0047    0.0369
          37   -0.0379   -0.1516    0.0439   -0.0325   -0.1264   -0.0067   -0.1551    0.0658
          38   -0.0754    0.0735    0.4848   -0.0516   -0.1360    0.0407   -0.1139   -0.0166
          39   -0.0265   -0.2343   -0.2346   -0.0589    0.0110    0.0022   -0.0033    0.0438
          40   -0.0033    0.1363   -0.0320   -0.0425   -0.1582   -0.0141   -0.1367   -0.0929
          41    0.1109   -0.1130   -0.4250   -0.2479   -0.1262    0.0429   -0.1104   -0.0042
          42   -0.0267   -0.2303   -0.2325   -0.0587    0.0107    0.0037   -0.0028    0.0414
          43    0.0075   -0.0305   -0.0681    0.2836   -0.0395    0.3449   -0.0285    0.4389
          44   -0.0114    0.0245    0.0297   -0.1161    0.0330   -0.0064    0.0564   -0.1866
          45   -0.2090    0.0561    0.0275   -0.1017    0.0105    0.0486    0.1018   -0.2833
          46    0.1062    0.1208    0.0661   -0.1587    0.2980   -0.0748   -0.2242    0.4727
          47    0.1750   -0.0972    0.0012   -0.0087    0.0133   -0.0346    0.0312   -0.1807
          48    0.0520   -0.1179   -0.0156    0.0575   -0.0400   -0.0124    0.0677   -0.2594


   Root No.       9        10        11        12        13        14        15        16

                 9 A      10 A      11 A      12 A      13 A      14 A      15 A      16 A   

                 789.0     886.4     893.9     931.9     950.1     957.0    1002.5    1080.0
  
           1    0.0370    0.0189   -0.0067    0.0126   -0.0819   -0.1053   -0.0595   -0.0288
           2   -0.0120    0.0446    0.0918   -0.1267   -0.1046    0.0751   -0.0485    0.3047
           3   -0.0305   -0.1392   -0.0015   -0.1631    0.1115    0.0295    0.1097   -0.1474
           4    0.1232   -0.1272    0.0806   -0.0707    0.0028    0.0219    0.1745    0.1469
           5   -0.0424    0.0600   -0.0676    0.0209   -0.1490   -0.2974    0.0070    0.0717
           6    0.1777   -0.2810    0.1735    0.1291   -0.0546   -0.0211    0.1512    0.0944
           7   -0.0072    0.0026    0.0037   -0.0061   -0.0136   -0.0027   -0.0070    0.0513
           8    0.0459   -0.0344    0.0540    0.0018    0.0905    0.1528   -0.0043   -0.0919
           9    0.2343    0.1324   -0.0747   -0.0108   -0.0197   -0.0041   -0.1304   -0.0435
          10   -0.0040   -0.0205    0.0034    0.0241    0.0812    0.1211   -0.0311   -0.0473
          11    0.0036   -0.0205    0.0372   -0.0069    0.1341    0.3080   -0.0999    0.0244
          12    0.0146    0.0985   -0.0728   -0.0899    0.0677    0.0176    0.1277    0.0243
          13   -0.1241   -0.0632   -0.1726   -0.0624   -0.2472    0.1680    0.0393    0.0663
          14    0.0684   -0.1932   -0.1264   -0.0286    0.2018   -0.1184   -0.0279    0.0403
          15    0.0235    0.0490    0.0196   -0.0175    0.1114   -0.1235   -0.1486    0.2413
          16   -0.1810    0.1502    0.1297   -0.0791    0.2292   -0.1554   -0.2109   -0.1467
          17    0.0171   -0.0255   -0.1017    0.0008   -0.0770    0.0308   -0.0056   -0.2853
          18   -0.0236    0.2234    0.0853   -0.0473   -0.2893    0.0985   -0.0599   -0.1738
          19    0.0259    0.0413   -0.0302   -0.0318   -0.0356   -0.0325   -0.1349   -0.0822
          20    0.0169    0.2294    0.4720   -0.0491   -0.1200    0.1021    0.2402   -0.3781
          21   -0.0167   -0.1726   -0.3307   -0.0562    0.0873   -0.0521   -0.2106    0.2487
          22    0.1663    0.2424   -0.1635   -0.1267    0.0586   -0.0589    0.1090   -0.0478
          23   -0.3213   -0.0195   -0.0040   -0.0712    0.0887    0.0063    0.2017   -0.0440
          24   -0.2212   -0.0757    0.0387    0.0057    0.0096    0.0046    0.0428    0.0041
          25   -0.1873   -0.1892    0.1392    0.1352   -0.1215   -0.0985   -0.0882   -0.0569
          26    0.3293    0.0334    0.0205    0.0818   -0.0720   -0.0242   -0.1792   -0.1241
          27   -0.2310   -0.0789    0.0400    0.0066    0.0019   -0.0063    0.0417    0.0174
          28   -0.0160    0.1130   -0.0774    0.0028   -0.0648   -0.0730   -0.2245   -0.0603
          29    0.2500   -0.1360    0.1105    0.1695   -0.1611   -0.1724   -0.0880    0.0040
          30   -0.1491    0.0901   -0.0828   -0.0611    0.0329    0.0144   -0.0240   -0.0109
          31    0.1380   -0.2687    0.1321   -0.0339    0.0728   -0.0531    0.5562    0.1567
          32   -0.2535    0.1401   -0.1506   -0.1445    0.0663   -0.1236    0.2229    0.0203
          33   -0.1469    0.0908   -0.0803   -0.0543    0.0248   -0.0063   -0.0219   -0.0170
          34    0.0387   -0.0658    0.0776   -0.0124    0.2562    0.5618   -0.1504    0.0323
          35   -0.0151    0.0187   -0.0202    0.0060   -0.0541   -0.1222    0.0277   -0.0138
          36   -0.0820   -0.1052    0.0720    0.0636   -0.0390   -0.0038   -0.0556   -0.0062
          37   -0.1979   -0.2278    0.1371    0.1919   -0.2007   -0.2417   -0.1271   -0.0844
          38   -0.0046    0.0219   -0.0236    0.0081   -0.0594   -0.1382    0.0320   -0.0252
          39   -0.0939   -0.1010    0.0687    0.0618   -0.0365   -0.0019   -0.0577   -0.0092
          40    0.1610    0.2745   -0.2132   -0.1564    0.0422   -0.1805    0.2508   -0.0230
          41   -0.0275    0.0179   -0.0222    0.0078   -0.0579   -0.1379    0.0356   -0.0242
          42   -0.0904   -0.0928    0.0626    0.0573   -0.0440   -0.0219   -0.0477   -0.0061
          43    0.2482    0.0192    0.0354    0.3354    0.4811   -0.2139    0.0058   -0.1789
          44   -0.0923   -0.0858   -0.1515   -0.0026   -0.0882    0.0734    0.0396   -0.0186
          45   -0.1593   -0.0760   -0.4410    0.5175    0.0607    0.1419    0.1928   -0.3478
          46    0.1617    0.1966   -0.1683    0.3228   -0.3862    0.2257    0.1297    0.2005
          47   -0.1600    0.3635    0.1585    0.4728    0.1273    0.0156    0.0861    0.3835
          48   -0.1765    0.2344    0.2061    0.1476    0.1542   -0.0582   -0.0312    0.1435


   Root No.      17        18        19        20        21        22        23        24

                17 A      18 A      19 A      20 A      21 A      22 A      23 A      24 A   

                1110.0    1123.7    1127.4    1135.1    1143.1    1153.9    1219.5    1246.5
  
           1   -0.2883   -0.1331   -0.0618   -0.0479   -0.2322    0.0015   -0.0714   -0.0498
           2    0.0754    0.3496   -0.1124    0.0290    0.1041    0.3342    0.1199    0.0079
           3    0.2424   -0.0332    0.1717    0.0774    0.1870   -0.2008    0.0142   -0.2599
           4    0.2296    0.2854    0.0203    0.0346    0.1916    0.0228   -0.1904   -0.2513
           5   -0.0014    0.1070   -0.2037   -0.0261   -0.2584   -0.2898    0.0190   -0.2256
           6   -0.2525   -0.0058   -0.0916   -0.2115    0.0480    0.0290    0.1209   -0.0135
           7   -0.2185    0.2801    0.1478    0.1758    0.0447   -0.2272   -0.0936   -0.2109
           8   -0.0123   -0.1495    0.1413    0.0039    0.2081    0.3460   -0.1558   -0.1726
           9    0.2034    0.0708    0.2699    0.0820   -0.2714    0.0749   -0.0271    0.0036
          10    0.2301   -0.2732   -0.1860   -0.1767   -0.0789    0.1854    0.0246    0.0019
          11   -0.0793    0.0622   -0.0104    0.0279   -0.0803   -0.1587    0.0645    0.0958
          12   -0.0996   -0.0930   -0.2518    0.1420    0.1675   -0.0396   -0.0127    0.0077
          13    0.0194   -0.2737    0.1271   -0.0155    0.0101   -0.1372   -0.0400    0.0677
          14    0.0099   -0.2511    0.1214   -0.0156   -0.0059   -0.1864   -0.0928   -0.0006
          15   -0.0527   -0.2541    0.0681   -0.0566   -0.0484   -0.1081   -0.1382    0.1565
          16   -0.0527    0.1589   -0.1401   -0.0255   -0.0509    0.1201   -0.0038    0.1077
          17   -0.0600    0.0247   -0.0888   -0.0547   -0.0801   -0.0109   -0.0964    0.1413
          18   -0.0953    0.2116   -0.1930   -0.0615   -0.0874    0.1650   -0.0637    0.1440
          19   -0.1095   -0.1574    0.0556    0.1383   -0.0152    0.0841    0.7678   -0.2634
          20    0.0989   -0.1149    0.0865    0.0427    0.0295   -0.1645    0.1800   -0.1547
          21    0.0002    0.0816   -0.0016    0.0665    0.0769    0.1639    0.2851   -0.0833
          22   -0.2456    0.2142    0.5199   -0.2685    0.0275   -0.0488    0.1232    0.2374
          23   -0.2660   -0.0363    0.1894   -0.2892    0.2671    0.1265    0.0703    0.1550
          24   -0.0268   -0.0298   -0.0303   -0.0197    0.0390    0.0278    0.0022    0.0043
          25   -0.2295   -0.0292   -0.0071    0.5617    0.2389   -0.0791   -0.0060    0.3074
          26    0.0447   -0.1105    0.1918    0.3906    0.0635    0.2017   -0.0594    0.2099
          27   -0.0476    0.0122   -0.0397    0.0035    0.0191   -0.0438    0.0118   -0.0035
          28    0.4322    0.1210   -0.0254   -0.1329    0.4364   -0.2493    0.1153    0.2847
          29    0.0346    0.0306   -0.1864   -0.2564    0.1671   -0.2744    0.2016    0.1856
          30    0.0714    0.0141    0.0435    0.0313    0.0283    0.0142   -0.0076   -0.0075
          31    0.1503    0.0832    0.0155    0.1310   -0.1995    0.1013    0.1816    0.3508
          32    0.2275    0.0218    0.0094    0.2052   -0.3231   -0.0822    0.1232    0.2133
          33    0.0370   -0.0046    0.0169    0.0217   -0.0361   -0.0283    0.0155   -0.0033
          34    0.0398   -0.0331   -0.1259   -0.0586   -0.1448   -0.1226    0.1170    0.1930
          35   -0.0132   -0.0053    0.0282    0.0106    0.0283    0.0299   -0.0228   -0.0388
          36    0.0360    0.0208    0.0687   -0.0107   -0.0666    0.0195    0.0017    0.0029
          37    0.2586   -0.0961    0.2065   -0.2072   -0.1452    0.2605    0.0041    0.0303
          38    0.0104   -0.0456    0.0157   -0.0006    0.0432    0.0710   -0.0129    0.0085
          39    0.0439    0.0034    0.0474   -0.0250   -0.0520    0.0227    0.0097    0.0210
          40    0.0116   -0.2756   -0.3126    0.0199    0.2202    0.1666   -0.0096    0.0413
          41    0.0097   -0.0408    0.0277   -0.0141    0.0329    0.0748   -0.0105    0.0076
          42    0.0194    0.0282    0.0621   -0.0027   -0.0355    0.0068   -0.0098   -0.0202
          43   -0.0231    0.0909   -0.0506    0.0038   -0.0225    0.0162   -0.0018   -0.0192
          44    0.0205   -0.0640    0.0397    0.0008    0.0118   -0.0530   -0.0150   -0.0063
          45    0.0358    0.2124   -0.0783    0.0256    0.0213    0.0558    0.0441   -0.0467
          46   -0.0078   -0.0714    0.0442    0.0031    0.0035   -0.0092    0.0010   -0.0067
          47    0.0663   -0.1287    0.1252    0.0337    0.0686   -0.0483    0.0341   -0.0486
          48    0.0182    0.0200    0.0039    0.0069    0.0218    0.0362    0.0151    0.0038


   Root No.      25        26        27        28        29        30        31        32

                25 A      26 A      27 A      28 A      29 A      30 A      31 A      32 A   

                1354.1    1386.2    1408.9    1411.0    1412.9    1428.4    1458.9    1925.2
  
           1   -0.1955    0.1065   -0.0067    0.0549   -0.0466    0.1633    0.5563   -0.1931
           2   -0.1128    0.0799   -0.0030    0.0006   -0.0049    0.0934    0.2271   -0.1254
           3   -0.2162    0.0907   -0.0008    0.0365   -0.0318    0.1044    0.2790   -0.1716
           4   -0.2671    0.1071    0.0052   -0.0344    0.0208   -0.0047   -0.4533    0.0363
           5   -0.1841   -0.1774    0.0009    0.2609   -0.2065   -0.0085   -0.1421    0.0081
           6    0.0248   -0.0121    0.0000   -0.0038    0.0038   -0.0139   -0.0419    0.0092
           7    0.3752    0.0320    0.0039   -0.0778    0.0872   -0.3791    0.1913    0.0039
           8    0.2439   -0.2019   -0.0019   -0.2368    0.2318    0.0566    0.1139    0.0007
           9    0.0002    0.0033   -0.0087    0.0003    0.0004   -0.0036    0.0032   -0.0003
          10    0.1440    0.1617   -0.0036    0.0962   -0.1466    0.4498   -0.1076   -0.0015
          11   -0.0573   -0.0085   -0.0144   -0.1410   -0.2129    0.0089   -0.0016   -0.0003
          12    0.0005    0.0040   -0.2491    0.0104    0.0086    0.0029   -0.0028    0.0000
          13    0.0940   -0.0376    0.0014   -0.0201    0.0176   -0.0474   -0.1196    0.0482
          14   -0.0077    0.0037   -0.0001    0.0065   -0.0052    0.0120    0.0572    0.5534
          15    0.1488   -0.0693    0.0022   -0.0252    0.0224   -0.0858   -0.2352   -0.2962
          16    0.0883   -0.0377    0.0011   -0.0142    0.0124   -0.0438   -0.1159    0.0586
          17    0.1409   -0.0689    0.0024   -0.0235    0.0209   -0.0860   -0.2445   -0.4616
          18    0.0552   -0.0143    0.0002   -0.0095    0.0074   -0.0105   -0.0137    0.4231
          19    0.0883   -0.0596    0.0011   -0.0031    0.0074   -0.0627   -0.1667    0.0339
          20   -0.0152   -0.0100    0.0007    0.0107   -0.0070   -0.0060   -0.0211   -0.0226
          21   -0.0026    0.0055    0.0001   -0.0060    0.0050   -0.0002   -0.0159   -0.0326
          22   -0.2221   -0.1538   -0.0045   -0.0484    0.0527    0.2437   -0.0879    0.0007
          23   -0.0604    0.3019   -0.0010    0.1824   -0.2245   -0.1566   -0.0489    0.0002
          24    0.0509    0.2503   -0.0023    0.1422   -0.1628   -0.2202    0.0094    0.0006
          25   -0.2355   -0.1407    0.0004   -0.0424    0.0439    0.2435   -0.0871    0.0013
          26   -0.0744    0.3060    0.0031    0.1818   -0.2253   -0.1490   -0.0454    0.0004
          27   -0.0536   -0.2577   -0.0065   -0.1451    0.1669    0.2262   -0.0124   -0.0006
          28    0.1781   -0.1674    0.0093    0.1147   -0.0921   -0.0045    0.2025   -0.0147
          29    0.0253    0.3007    0.0088   -0.2536    0.1984    0.0069    0.0415   -0.0044
          30    0.0632   -0.2761   -0.0029    0.2296   -0.1792   -0.0107    0.0758   -0.0048
          31    0.2449   -0.2063   -0.0120    0.1137   -0.0881   -0.0374    0.1138    0.0073
          32    0.0227    0.3069   -0.0065   -0.2589    0.2037    0.0050    0.0280   -0.0026
          33   -0.0677    0.2705   -0.0003   -0.2200    0.1717    0.0149   -0.0554   -0.0010
          34   -0.3324   -0.0932    0.0104    0.1740    0.2548   -0.2744    0.0320   -0.0003
          35    0.1073    0.0429   -0.0064   -0.0685   -0.1292    0.1320   -0.0195   -0.0002
          36   -0.0029   -0.0059    0.7265   -0.0226   -0.0259    0.0043    0.0052    0.0000
          37   -0.2578   -0.1661   -0.2400   -0.1536    0.0211   -0.3020    0.0560    0.0000
          38   -0.0324    0.0180   -0.3465    0.3437    0.4124   -0.0567    0.0023    0.0001
          39   -0.1078   -0.0945    0.0655   -0.2817   -0.2338   -0.1346    0.0318    0.0000
          40   -0.2604   -0.1704    0.2315   -0.1760   -0.0042   -0.2990    0.0611   -0.0001
          41   -0.0303    0.0140    0.4034    0.3198    0.3835   -0.0474    0.0078   -0.0001
          42    0.1022    0.0892    0.1044    0.2698    0.2245    0.1296   -0.0296    0.0000
          43   -0.0155    0.0046   -0.0003    0.0041   -0.0036    0.0074    0.0213    0.0662
          44   -0.0036    0.0024    0.0000    0.0013   -0.0010    0.0048    0.0204    0.2331
          45   -0.0215    0.0058   -0.0001    0.0031   -0.0026    0.0054    0.0062   -0.0429
          46   -0.0126    0.0067   -0.0004    0.0014   -0.0012    0.0087    0.0235    0.0699
          47   -0.0177    0.0050   -0.0001    0.0015   -0.0011    0.0034    0.0004   -0.1171
          48   -0.0060    0.0053   -0.0002    0.0005   -0.0006    0.0079    0.0242    0.2046


   Root No.      33        34        35        36        37        38        39        40

                33 A      34 A      35 A      36 A      37 A      38 A      39 A      40 A   

                2946.6    2960.1    2972.9    3031.6    3036.5    3078.4    3084.5    3181.4
  
           1   -0.0157   -0.0184    0.0910    0.0047    0.0003    0.0000   -0.0003    0.0000
           2    0.0225    0.0271   -0.1426   -0.0030    0.0008    0.0001    0.0001    0.0000
           3    0.0314    0.0375   -0.2016   -0.0044   -0.0004    0.0002    0.0001    0.0000
           4    0.0029    0.0022   -0.0001    0.1166   -0.0350   -0.0001    0.0023    0.0011
           5    0.0012    0.0008    0.0031   -0.1679    0.0557    0.0001    0.0004   -0.0008
           6   -0.2319   -0.1841   -0.0728   -0.0043    0.0001    0.0010    0.0000    0.0000
           7   -0.0042    0.0050    0.0025   -0.0371   -0.1167   -0.0001    0.0107   -0.0023
           8    0.0041   -0.0053   -0.0014    0.0488    0.1683    0.0003   -0.0161   -0.0015
           9    0.1914   -0.2354   -0.0145   -0.0034   -0.0103   -0.0163    0.0008    0.0000
          10    0.0001   -0.0001   -0.0001   -0.0006   -0.0028    0.0034    0.0073   -0.1506
          11   -0.0002    0.0003    0.0002   -0.0077   -0.0246   -0.0033   -0.2943   -0.0117
          12   -0.0112    0.0116    0.0002    0.0002    0.0014   -0.2944    0.0033   -0.0015
          13    0.0003    0.0001    0.0020    0.0009   -0.0002    0.0000    0.0000    0.0000
          14   -0.0004   -0.0006    0.0042    0.0001   -0.0001    0.0000    0.0000    0.0000
          15    0.0011    0.0013   -0.0055   -0.0001    0.0000    0.0000    0.0000    0.0000
          16    0.0012    0.0009    0.0024   -0.0002    0.0002    0.0000    0.0000    0.0000
          17    0.0015    0.0017   -0.0064   -0.0005    0.0002    0.0001    0.0000    0.0001
          18    0.0001    0.0000    0.0021   -0.0001    0.0001    0.0000    0.0000   -0.0001
          19    0.0523    0.0620   -0.3468   -0.0091    0.0009    0.0002    0.0000    0.0000
          20   -0.0796   -0.0966    0.5001    0.0107    0.0024   -0.0004   -0.0003    0.0000
          21   -0.1152   -0.1374    0.7078    0.0166    0.0014   -0.0005   -0.0003    0.0000
          22   -0.1435    0.1720    0.0082    0.0653    0.2047    0.0178   -0.0214   -0.0034
          23    0.2042   -0.2576   -0.0140   -0.0943   -0.3024   -0.0184    0.0249    0.0024
          24   -0.3290    0.3996    0.0186    0.1767    0.5666    0.0283   -0.0500   -0.0045
          25    0.1569   -0.1902   -0.0112    0.0647    0.2039   -0.0173   -0.0215   -0.0035
          26   -0.2185    0.2767    0.0220   -0.0899   -0.2922    0.0172    0.0243    0.0024
          27   -0.3415    0.4181    0.0304   -0.1644   -0.5308    0.0249    0.0473    0.0043
          28   -0.1825   -0.1415   -0.0558   -0.2205    0.0661    0.0023    0.0006   -0.0021
          29    0.2556    0.2094    0.0724    0.3114   -0.0955   -0.0005    0.0013    0.0017
          30    0.3916    0.3086    0.1073    0.5575   -0.1713   -0.0026    0.0013    0.0036
          31    0.1715    0.1331    0.0606   -0.1858    0.0573   -0.0019    0.0007   -0.0019
          32   -0.2605   -0.2133   -0.0899    0.2889   -0.0917    0.0002    0.0013    0.0016
          33    0.4187    0.3301    0.1409   -0.5433    0.1709   -0.0021   -0.0012   -0.0036
          34    0.0000   -0.0001   -0.0001    0.0035    0.0183    0.0028    0.2673    0.1817
          35    0.0004   -0.0008   -0.0003    0.0146    0.0652    0.0060    0.7075    0.5676
          36   -0.0006    0.0006    0.0000    0.0000    0.0002   -0.0447    0.0011    0.0003
          37   -0.0066    0.0050   -0.0003   -0.0048   -0.0086   -0.2543   -0.1497    0.1821
          38    0.0121   -0.0141   -0.0006    0.0037    0.0099    0.3336    0.1540   -0.2657
          39    0.0209   -0.0229   -0.0007    0.0093    0.0217    0.5310    0.3417   -0.4558
          40    0.0061   -0.0042    0.0003   -0.0048   -0.0100    0.2397   -0.1452    0.1709
          41   -0.0118    0.0137    0.0005    0.0042    0.0127   -0.3280    0.1568   -0.2621
          42    0.0209   -0.0226   -0.0005   -0.0103   -0.0269    0.5342   -0.3544    0.4609
          43   -0.0005   -0.0006    0.0036    0.0004   -0.0002    0.0000    0.0000    0.0000
          44   -0.0004   -0.0006    0.0058    0.0001   -0.0003    0.0000    0.0000   -0.0001
          45    0.0000    0.0000   -0.0007    0.0000    0.0000    0.0000    0.0000    0.0000
          46   -0.0003   -0.0002    0.0039   -0.0001   -0.0001    0.0000    0.0000    0.0001
          47   -0.0001    0.0002   -0.0027    0.0003    0.0002    0.0000    0.0000   -0.0001
          48   -0.0001   -0.0004    0.0054   -0.0003   -0.0003    0.0000    0.0000    0.0002


   Root No.      41        42

                41 A      42 A   

                3267.0    3303.6
  
           1    0.0002    0.0144
           2    0.0013    0.0128
           3   -0.0009    0.0178
           4   -0.0001    0.0002
           5    0.0003    0.0001
           6   -0.0001    0.0004
           7    0.0001   -0.0002
           8    0.0000   -0.0001
           9    0.0000    0.0001
          10    0.0000    0.0000
          11    0.0000    0.0001
          12    0.0001    0.0000
          13   -0.0522   -0.0569
          14   -0.1880   -0.2441
          15    0.0375    0.0677
          16    0.0549   -0.0612
          17   -0.0964    0.1443
          18    0.1637   -0.2078
          19    0.0000    0.0024
          20    0.0010   -0.0004
          21   -0.0006   -0.0006
          22    0.0000    0.0000
          23    0.0000   -0.0001
          24   -0.0001    0.0003
          25    0.0000    0.0001
          26    0.0000   -0.0002
          27    0.0000   -0.0003
          28    0.0000    0.0006
          29    0.0000   -0.0001
          30    0.0000   -0.0003
          31    0.0000   -0.0003
          32   -0.0002    0.0004
          33    0.0004   -0.0006
          34    0.0000    0.0001
          35    0.0002    0.0000
          36    0.0000    0.0000
          37    0.0001    0.0000
          38   -0.0001    0.0001
          39   -0.0001    0.0000
          40    0.0000    0.0000
          41    0.0000    0.0000
          42    0.0002   -0.0002
          43    0.1773    0.1723
          44    0.6433    0.6209
          45   -0.1303   -0.1236
          46   -0.1870    0.1827
          47    0.3319   -0.3204
          48   -0.5604    0.5455


          DESCRIPTION OF VIBRATIONS


 VIBRATION    1    1A       ATOM PAIR        ENERGY CONTRIBUTION    RADIAL
 FREQ.        64.90        C  2 --  C  3          +14.7% (859.4%)     0.0%
 T-DIPOLE    0.0362        C  1 --  C  2          +13.0% (806.1%)     0.0%
[...]
 RED. MASS   0.3363        C  3 --  C  4           +8.1% ( 32.8%)    96.3%
 EFF. MASS   2.8642

 VIBRATION   21   21A       ATOM PAIR        ENERGY CONTRIBUTION    RADIAL
 FREQ.      1143.06        C  2 --  H 10          +15.1% ( 52.6%)     5.2%
 T-DIPOLE    0.1517        C  2 --  C  3          +13.0% ( 48.8%)    42.8%
 TRAVEL      0.1022        C  1 --  C  2          +12.4% ( 47.7%)    54.4%
 RED. MASS   0.5302        C  2 --  H 11          +10.4% ( 43.8%)    16.1%
 EFF. MASS   5.6463

 VIBRATION   22   22A       ATOM PAIR        ENERGY CONTRIBUTION    RADIAL
 FREQ.      1153.87        C  2 --  C  3          +13.4% ( 54.4%)    53.9%
 T-DIPOLE    0.1431        C  3 --  C  4          +11.9% ( 51.3%)    38.1%
 TRAVEL      0.0851        C  1 --  C  5           +9.0% ( 44.5%)    67.7%
 RED. MASS   0.8910        C  1 --  C  2           +7.8% ( 41.5%)     0.1%
 EFF. MASS   8.0771

 VIBRATION   23   23A       ATOM PAIR        ENERGY CONTRIBUTION    RADIAL
 FREQ.      1219.46        C  1 --  H  7          +57.1% ( 82.8%)     0.8%
 T-DIPOLE    0.2026        C  2 --  H 11           +7.6% ( 30.3%)     0.2%
 TRAVEL      0.1530        C  2 --  H 10           +7.1% ( 29.1%)     9.7%
 RED. MASS   0.5669        C  2 --  C  3           +5.1% ( 24.8%)    26.6%
 EFF. MASS   2.3627

 VIBRATION   24   24A       ATOM PAIR        ENERGY CONTRIBUTION    RADIAL
 FREQ.      1246.52        C  2 --  H 11          +16.4% ( 51.7%)     0.0%
 T-DIPOLE    0.1087        C  2 --  H 10          +13.7% ( 47.3%)     0.1%
 TRAVEL      0.1121        C  3 --  H  9          +12.7% ( 45.5%)     0.0%
 RED. MASS   0.4058        C  3 --  H  8           +9.1% ( 38.6%)     0.0%
 EFF. MASS   4.3015

 VIBRATION   25   25A       ATOM PAIR        ENERGY CONTRIBUTION    RADIAL
 FREQ.      1354.08        C  2 --  C  3          +14.2% ( 51.1%)    66.7%
 T-DIPOLE    0.0578        C  3 --  H  9          +11.2% ( 45.5%)     0.0%
 TRAVEL      0.0923        C  3 --  H  8          +10.7% ( 44.4%)     0.0%
 RED. MASS   0.8013        C  2 --  H 11           +7.2% ( 36.5%)     0.0%
 EFF. MASS   5.8432

 VIBRATION   26   26A       ATOM PAIR        ENERGY CONTRIBUTION    RADIAL
 FREQ.      1386.15        C  2 --  H 11          +17.9% ( 42.1%)     3.1%
 T-DIPOLE    0.0350        C  2 --  H 10          +16.4% ( 40.4%)     4.6%
 TRAVEL      0.1468        C  3 --  H  9          +15.7% ( 39.4%)     3.4%
 RED. MASS   0.2104        C  3 --  H  8          +15.4% ( 39.1%)     3.6%
 EFF. MASS   2.2574

 VIBRATION   27   27A       ATOM PAIR        ENERGY CONTRIBUTION    RADIAL
 FREQ.      1408.87        C  4 --  H 12          +52.8% ( 62.6%)     0.0%
 T-DIPOLE    0.0372        C  4 --  H 14          +23.4% ( 41.6%)     9.1%
 TRAVEL      0.1766        C  4 --  H 13          +18.9% ( 37.4%)    13.2%
 RED. MASS   0.4129        C  3 --  C  4           +4.9% ( 19.0%)     0.2%
 EFF. MASS   1.5352

 VIBRATION   28   28A       ATOM PAIR        ENERGY CONTRIBUTION    RADIAL
 FREQ.      1411.04        C  4 --  H 13          +16.4% ( 40.4%)     2.0%
 T-DIPOLE    0.0468        C  4 --  H 14          +15.3% ( 39.0%)     2.8%
 TRAVEL      0.1347        C  2 --  H 10          +13.6% ( 36.7%)     4.8%
 RED. MASS   0.2478        C  2 --  H 11          +13.5% ( 36.6%)     5.1%
 EFF. MASS   2.6326        C  2 --  C  3          +10.9% ( 33.0%)    92.3%

 VIBRATION   29   29A       ATOM PAIR        ENERGY CONTRIBUTION    RADIAL
 FREQ.      1412.91        C  4 --  H 13          +19.1% ( 44.4%)     0.2%
 T-DIPOLE    0.0371        C  4 --  H 14          +17.2% ( 42.0%)     0.5%
 TRAVEL      0.1314        C  3 --  H  9           +9.4% ( 31.1%)     2.9%
 RED. MASS   0.2442        C  3 --  H  8           +9.3% ( 31.0%)     2.8%
 EFF. MASS   2.7625

 VIBRATION   30   30A       ATOM PAIR        ENERGY CONTRIBUTION    RADIAL
 FREQ.      1428.39        C  3 --  C  4          +18.7% ( 55.0%)    99.6%
 T-DIPOLE    0.0865        C  4 --  H 13          +13.6% ( 46.9%)     3.6%
 TRAVEL      0.0943        C  4 --  H 14          +13.5% ( 46.6%)     3.5%
 RED. MASS   0.8482        C  4 --  H 12          +12.6% ( 45.0%)     3.9%
 EFF. MASS   5.3049        C  3 --  H  9          +11.8% ( 43.5%)     4.2%
                           C  3 --  H  8          +11.7% ( 43.5%)     4.1%

 VIBRATION   31   31A       ATOM PAIR        ENERGY CONTRIBUTION    RADIAL
 FREQ.      1458.93        C  1 --  C  2          +22.7% ( 78.2%)    81.0%
 T-DIPOLE    0.3963        C  1 --  C  5          +15.2% ( 63.9%)    56.8%
 TRAVEL      0.0664        C  1 --  C  6          +15.1% ( 63.8%)    51.8%
 RED. MASS   3.0990        C  1 --  H  7          +14.2% ( 61.8%)     1.0%
 EFF. MASS  10.4733

 VIBRATION   32   32A       ATOM PAIR        ENERGY CONTRIBUTION    RADIAL
 FREQ.      1925.16        C  5 --  C  6          +42.0% ( 97.5%)   100.0%
 T-DIPOLE    0.1933        C  1 --  C  5          +16.5% ( 61.2%)    70.9%
 TRAVEL      0.0543        C  1 --  C  6          +16.5% ( 61.1%)    71.1%
 RED. MASS   3.8557        C  5 --  H 15          +10.7% ( 49.2%)    71.8%
 EFF. MASS  11.8842        C  6 --  H 16          +10.7% ( 49.1%)    71.6%

 VIBRATION   33   33A       ATOM PAIR        ENERGY CONTRIBUTION    RADIAL
 FREQ.      2946.62        C  2 --  H 11          +29.2% ( 56.3%)    96.5%
 T-DIPOLE    0.0130        C  2 --  H 10          +27.2% ( 54.3%)    96.2%
 TRAVEL      0.1214        C  3 --  H  9          +20.3% ( 46.9%)    96.6%
 RED. MASS   0.2557        C  3 --  H  8          +18.4% ( 44.7%)    96.0%
 EFF. MASS   1.5517

 VIBRATION   34   34A       ATOM PAIR        ENERGY CONTRIBUTION    RADIAL
 FREQ.      2960.14        C  3 --  H  9          +30.9% ( 57.6%)    96.9%
 T-DIPOLE    0.0138        C  3 --  H  8          +27.8% ( 54.5%)    96.3%
 TRAVEL      0.1221        C  2 --  H 11          +18.5% ( 44.5%)    96.8%
 RED. MASS   0.2564        C  2 --  H 10          +17.2% ( 42.9%)    96.4%
 EFF. MASS   1.5288

 VIBRATION   35   35A       ATOM PAIR        ENERGY CONTRIBUTION    RADIAL
 FREQ.      2972.90        C  1 --  H  7          +90.9% ( 96.9%)   100.0%
 T-DIPOLE    0.0568        C  2 --  H 11           +3.4% ( 18.9%)    97.7%
 TRAVEL      0.1254        C  2 --  H 10           +2.2% ( 15.2%)    95.7%
 RED. MASS   0.8247        C  1 --  C  2           +1.0% ( 10.3%)    18.0%
 EFF. MASS   1.4432

 VIBRATION   36   36A       ATOM PAIR        ENERGY CONTRIBUTION    RADIAL
 FREQ.      3031.63        C  2 --  H 10          +47.3% ( 67.8%)    98.0%
 T-DIPOLE    0.0225        C  2 --  H 11          +42.6% ( 64.3%)    97.4%
 TRAVEL      0.1321        C  3 --  H  8           +4.6% ( 21.1%)    98.2%
 RED. MASS   0.4068        C  3 --  H  9           +4.0% ( 19.8%)    97.5%
 EFF. MASS   1.2739

 VIBRATION   37   37A       ATOM PAIR        ENERGY CONTRIBUTION    RADIAL
 FREQ.      3036.50        C  3 --  H  8          +47.2% ( 67.6%)    98.0%
 T-DIPOLE    0.0135        C  3 --  H  9          +42.2% ( 63.9%)    97.4%
 TRAVEL      0.1321        C  2 --  H 10           +4.4% ( 20.8%)    97.7%
 RED. MASS   0.4014        C  2 --  H 11           +4.2% ( 20.3%)    97.4%
 EFF. MASS   1.2719

 VIBRATION   38   38A       ATOM PAIR        ENERGY CONTRIBUTION    RADIAL
 FREQ.      3078.40        C  4 --  H 13          +49.3% ( 72.4%)    97.1%
 T-DIPOLE    0.0124        C  4 --  H 14          +48.5% ( 71.8%)    97.0%
 TRAVEL      0.1208        C  3 --  C  4           +1.0% ( 10.2%)     0.0%
 RED. MASS   0.5060        C  4 --  H 12           +0.9% ( 10.0%)     0.1%
 EFF. MASS   1.5009

 VIBRATION   39   39A       ATOM PAIR        ENERGY CONTRIBUTION    RADIAL
 FREQ.      3084.52        C  4 --  H 12          +61.7% ( 81.0%)    98.7%
 T-DIPOLE    0.0077        C  4 --  H 14          +18.8% ( 44.7%)    86.1%
 TRAVEL      0.1206        C  4 --  H 13          +17.9% ( 43.6%)    85.3%
 RED. MASS   0.4763        C  3 --  C  4           +1.0% ( 10.3%)     0.0%
 EFF. MASS   1.5028

 VIBRATION   40   40A       ATOM PAIR        ENERGY CONTRIBUTION    RADIAL
 FREQ.      3181.40        C  4 --  H 12          +36.5% ( 58.1%)    97.6%
 T-DIPOLE    0.0111        C  4 --  H 13          +31.7% ( 54.1%)    96.8%
 TRAVEL      0.1366        C  4 --  H 14          +31.5% ( 54.0%)    96.8%
 RED. MASS   0.3283        C  3 --  C  4           +0.3% (  5.1%)    99.6%
 EFF. MASS   1.1367

 VIBRATION   41   41A       ATOM PAIR        ENERGY CONTRIBUTION    RADIAL
 FREQ.      3267.01        C  5 --  H 15          +48.7% ( 71.1%)   100.0%
 T-DIPOLE    0.8027        C  6 --  H 16          +48.4% ( 70.9%)   100.0%
 TRAVEL      0.1191        C  1 --  C  5           +1.0% ( 10.0%)    66.3%
 RED. MASS   0.4649        C  1 --  C  6           +1.0% ( 10.0%)    66.2%
 EFF. MASS   1.4550

 VIBRATION   42   42A       ATOM PAIR        ENERGY CONTRIBUTION    RADIAL
 FREQ.      3303.64        C  6 --  H 16          +46.0% ( 70.3%)    99.9%
 T-DIPOLE    0.4831        C  5 --  H 15          +45.7% ( 70.0%)    99.9%
 TRAVEL      0.1008        C  5 --  C  6           +4.9% ( 23.0%)   100.0%
 RED. MASS   0.4861        C  1 --  C  6           +1.7% ( 13.4%)    67.0%
 EFF. MASS   2.0099

 SYMMETRY NUMBER FOR POINT-GROUP C1  =  1


          SYSTEM IS A GROUND STATE


    NULL



          MOLECULE IS NOT LINEAR

          THERE ARE 42 GENUINE VIBRATIONS IN THIS SYSTEM
          THIS THERMODYNAMICS CALCULATION IS LIMITED TO
          MOLECULES WHICH HAVE NO INTERNAL ROTATIONS




                    CALCULATED THERMODYNAMIC PROPERTIES
                                          *
   TEMP. (K)   PARTITION FUNCTION   H.O.F.    ENTHALPY  HEAT CAPACITY ENTROPY
                                   KCAL/MOL   CAL/MOLE    CAL/K/MOL  CAL/K/MOL


 298.00  VIB.     0.4752D+02                  2654.7588    18.8882    16.5816
         ROT.     0.1509D+06                   888.2813     2.9808    26.6776
         INT.     0.7173D+07                  3543.0401    21.8690    43.2591
         TRA.     0.7198D+27                  1480.4688     4.9680    39.1295
         TOT.                       49.555    5023.5090    26.8370    82.3886

 200.00  VIB.     0.1109D+02                  1174.6021    11.6551    10.6543
         ROT.     0.8299D+05                   596.1620     2.9808    25.4889
         INT.     0.9204D+06                  1770.7640    14.6359    36.1432
         TRA.     0.3957D+27                   993.6033     4.9680    37.1484
         TOT.                       47.296    2764.3673    19.6039    73.2915

 210.00  VIB.     0.1286D+02                  1294.3075    12.2904    11.2382
         ROT.     0.8929D+05                   625.9700     2.9808    25.6343
         INT.     0.1148D+07                  1920.2776    15.2712    36.8725
         TRA.     0.4258D+27                  1043.2834     4.9680    37.3907
         TOT.                       47.495    2963.5610    20.2393    74.2633

 220.00  VIB.     0.1490D+02                  1420.5002    12.9526    11.8251
         ROT.     0.9575D+05                   655.7781     2.9808    25.7730
         INT.     0.1427D+07                  2076.2783    15.9334    37.5981
         TRA.     0.4566D+27                  1092.9636     4.9680    37.6219
         TOT.                       47.700    3169.2419    20.9014    75.2200

 230.00  VIB.     0.1727D+02                  1553.4471    13.6412    12.4160
         ROT.     0.1023D+06                   685.5862     2.9808    25.9055
         INT.     0.1768D+07                  2239.0334    16.6220    38.3215
         TRA.     0.4880D+27                  1142.6437     4.9680    37.8427
         TOT.                       47.913    3381.6771    21.5900    76.1642

 240.00  VIB.     0.2003D+02                  1693.4081    14.3551    13.0115
         ROT.     0.1091D+06                   715.3943     2.9808    26.0324
         INT.     0.2185D+07                  2408.8025    17.3359    39.0439
         TRA.     0.5202D+27                  1192.3239     4.9680    38.0541
         TOT.                       48.132    3601.1264    22.3040    77.0980

 250.00  VIB.     0.2322D+02                  1840.6289    15.0928    13.6124
         ROT.     0.1160D+06                   745.2024     2.9808    26.1540
         INT.     0.2693D+07                  2585.8313    18.0736    39.7665
         TRA.     0.5531D+27                  1242.0041     4.9680    38.2569
         TOT.                       48.359    3827.8354    23.0416    78.0234

 260.00  VIB.     0.2693D+02                  1995.3357    15.8520    14.2191
         ROT.     0.1230D+06                   775.0105     2.9808    26.2709
         INT.     0.3313D+07                  2770.3462    18.8328    40.4900
         TRA.     0.5866D+27                  1291.6842     4.9680    38.4518
         TOT.                       48.593    4062.0305    23.8008    78.9418

 270.00  VIB.     0.3125D+02                  2157.7320    16.6302    14.8319
         ROT.     0.1302D+06                   804.8186     2.9808    26.3834
         INT.     0.4069D+07                  2962.5506    19.6111    41.2153
         TRA.     0.6208D+27                  1341.3644     4.9680    38.6393
         TOT.                       48.835    4303.9150    24.5791    79.8546

 280.00  VIB.     0.3628D+02                  2327.9954    17.4250    15.4510
         ROT.     0.1375D+06                   834.6267     2.9808    26.4919
         INT.     0.4988D+07                  3162.6221    20.4058    41.9429
         TRA.     0.6556D+27                  1391.0445     4.9680    38.8200
         TOT.                       49.085    4553.6667    25.3738    80.7628

 290.00  VIB.     0.4214D+02                  2506.2769    18.2334    16.0765
         ROT.     0.1449D+06                   864.4348     2.9808    26.5965
         INT.     0.6107D+07                  3370.7117    21.2142    42.6730
         TRA.     0.6910D+27                  1440.7247     4.9680    38.9943
         TOT.                       49.343    4811.4364    26.1822    81.6673

 300.00  VIB.     0.4897D+02                  2692.6997    19.0528    16.7085
         ROT.     0.1525D+06                   894.2429     2.9808    26.6975
         INT.     0.7467D+07                  3586.9426    22.0336    43.4060
         TRA.     0.7270D+27                  1490.4049     4.9680    39.1627
         TOT.                       49.609    5077.3475    27.0016    82.5687

 310.00  VIB.     0.5695D+02                  2887.3601    19.8805    17.3467
         ROT.     0.1602D+06                   924.0510     2.9808    26.7952
         INT.     0.9121D+07                  3811.4111    22.8613    44.1419
         TRA.     0.7637D+27                  1540.0850     4.9680    39.3256
         TOT.                       49.883    5351.4961    27.8293    83.4675

 320.00  VIB.     0.6627D+02                  3090.3279    20.7139    17.9910
         ROT.     0.1680D+06                   953.8591     2.9808    26.8899
         INT.     0.1113D+08                  4044.1870    23.6947    44.8809
         TRA.     0.8009D+27                  1589.7652     4.9680    39.4834
         TOT.                       50.165    5633.9522    28.6627    84.3642

 330.00  VIB.     0.7716D+02                  3301.6480    21.5505    18.6412
         ROT.     0.1759D+06                   983.6672     2.9808    26.9816
         INT.     0.1357D+08                  4285.3152    24.5313    45.6228
         TRA.     0.8388D+27                  1639.4454     4.9680    39.6362
         TOT.                       50.456    5924.7606    29.4993    85.2590

 340.00  VIB.     0.8991D+02                  3521.3418    22.3882    19.2970
         ROT.     0.1840D+06                  1013.4753     2.9808    27.0706
         INT.     0.1654D+08                  4534.8171    25.3690    46.3676
         TRA.     0.8772D+27                  1689.1255     4.9680    39.7845
         TOT.                       50.755    6223.9426    30.3370    86.1521

 350.00  VIB.     0.1048D+03                  3749.4089    23.2249    19.9580
         ROT.     0.1921D+06                  1043.2834     2.9808    27.1570
         INT.     0.2014D+08                  4792.6923    26.2057    47.1150
         TRA.     0.9162D+27                  1738.8057     4.9680    39.9285
         TOT.                       51.063    6531.4980    31.1737    87.0436

 360.00  VIB.     0.1223D+03                  3985.8293    24.0586    20.6240
         ROT.     0.2004D+06                  1073.0915     2.9808    27.2410
         INT.     0.2452D+08                  5058.9208    27.0394    47.8650
         TRA.     0.9557D+27                  1788.4859     4.9680    40.0685
         TOT.                       51.379    6847.4067    32.0074    87.9335

 370.00  VIB.     0.1429D+03                  4230.5654    24.8877    21.2945
         ROT.     0.2088D+06                  1102.8996     2.9808    27.3226
         INT.     0.2984D+08                  5333.4650    27.8685    48.6171
         TRA.     0.9958D+27                  1838.1660     4.9680    40.2046
         TOT.                       51.703    7171.6310    32.8365    88.8218

 380.00  VIB.     0.1670D+03                  4483.5635    25.7108    21.9692
         ROT.     0.2174D+06                  1132.7077     2.9808    27.4021
         INT.     0.3629D+08                  5616.2712    28.6916    49.3713
         TRA.     0.1036D+28                  1887.8462     4.9680    40.3371
         TOT.                       52.035    7504.1173    33.6596    89.7084

 390.00  VIB.     0.1953D+03                  4744.7561    26.5264    22.6476
         ROT.     0.2260D+06                  1162.5158     2.9808    27.4796
         INT.     0.4413D+08                  5907.2719    29.5073    50.1271
         TRA.     0.1078D+28                  1937.5263     4.9680    40.4662
         TOT.                       52.376    7844.7983    34.4753    90.5933

 400.00  VIB.     0.2286D+03                  5014.0639    27.3336    23.3294
         ROT.     0.2347D+06                  1192.3239     2.9808    27.5550
         INT.     0.5365D+08                  6206.3878    30.3144    50.8844
         TRA.     0.1119D+28                  1987.2065     4.9680    40.5919
         TOT.                       52.725    8193.5943    35.2824    91.4763

   *: NOTE: HEATS OF FORMATION ARE RELATIVE TO THE
            ELEMENTS IN THEIR STANDARD STATE AT 298K
              (=  Standard Enthalpy of Formation).

            Hvib:  Zero-point energy is not included.
                   frequencies of less than zero cm-1 are not included.
            Hrot = (3/2)RT
            Htra = (3/2)RT + pV = (5/2)RT

            Heat capacity is Cp, not Cv

           For more information, see: HTTP://OpenMOPAC.net/Manual/thermochemistry.html


           FORCE CONSTANT IN CARTESIAN COORDINATES (Millidynes/A)

    ATOM   CHEMICAL       X               Y               Z
   NUMBER   SYMBOL  FORCE CONSTANT  FORCE CONSTANT  FORCE CONSTANT

      1       C        9.273508        6.792896        8.726059
      2       C        8.661816        8.195958        8.251635
      3       C        8.529202        8.190175        8.183831
      4       C        8.320351        8.382143        8.187596
      5       C        3.434200       17.245342        6.254484
      6       C        3.502191       10.576793       12.833651
      7       H        1.380323        1.776076        3.057538
      8       H        1.167876        1.678916        3.558518
      9       H        1.229075        1.728531        3.456781
     10       H        1.233692        1.727296        3.439199
     11       H        1.101856        1.689280        3.561546
     12       H        1.261020        4.869051        0.667141
     13       H        1.337663        1.706003        3.737690
     14       H        1.274034        1.681768        3.823812
     15       H        0.748687        5.288752        0.649642
     16       H        0.790079        1.757524        4.136722



 TOTAL CPU TIME:             1.08 SECONDS

 == MOPAC DONE ==
