 *******************************************************************************
 ** Site#: 14399           For non-commercial use only        Version 13.159M **
 *******************************************************************************
 ** Cite this work as: MOPAC2012, James J. P. Stewart, Stewart Computational  **
 ** Chemistry, Version 13.159M web: HTTP://OpenMOPAC.net  Days remaining:   6 **
 *******************************************************************************
 **                                                                           **
 **                                MOPAC2012                                  **
 **                                                                           **
 *******************************************************************************

                            PM3 CALCULATION RESULTS


 *******************************************************************************
 *  CALCULATION DONE:                                Mon Jun  2 11:08:23 2014  *
 *  PM3      - The PM3 Hamiltonian to be used
 *  PRECISE  - CRITERIA TO BE INCREASED BY 100 TIMES
 *  NOSYM    - POINT-GROUP SYMMETRY SET TO C1
 *  T=       - A TIME OF 172800.0 SECONDS REQUESTED
 *  DUMP=N   - RESTART FILE WRITTEN EVERY  7200.000 SECONDS
 *******************************************************************************
pm3  precise nosym
 InChI=1S/C10H16/c1-3-5-9-7-8-10(9)6-4-2/h3-4,6,9-10H,1,5,7-8H2,2H3

   ATOM   CHEMICAL          X               Y               Z
  NUMBER   SYMBOL      (ANGSTROMS)     (ANGSTROMS)     (ANGSTROMS)
 
     1       C          0.66380000  *  -1.02520000  *   0.32740000  *
     2       C         -0.20680000  *  -0.56080000  *  -0.84580000  *
     3       C          0.76760000  *  -2.42310000  *  -0.35900000  *
     4       C         -0.18180000  *  -1.93160000  *  -1.44060000  *
     5       C          2.01130000  *  -0.31000000  *   0.48080000  *
     6       C         -3.09020000  *   1.62770000  *   0.54040000  *
     7       C         -1.57230000  *  -0.06100000  *  -0.44600000  *
     8       C          1.83530000  *   1.06040000  *   1.06930000  *
     9       C         -1.73530000  *   1.12780000  *   0.14780000  *
    10       C          2.19720000  *   2.17330000  *   0.42660000  *
    11       H          0.11850000  *  -1.11050000  *   1.29910000  *
    12       H          0.29860000  *   0.17090000  *  -1.52200000  *
    13       H          1.77690000  *  -2.67530000  *  -0.76190000  *
    14       H          0.33480000  *  -3.24130000  *   0.26280000  *
    15       H         -1.14590000  *  -2.49280000  *  -1.42120000  *
    16       H          0.28230000  *  -1.95700000  *  -2.45450000  *
    17       H          2.55390000  *  -0.28000000  *  -0.49410000  *
    18       H          2.65070000  *  -0.89670000  *   1.17910000  *
    19       H         -3.74360000  *   1.71930000  *  -0.35670000  *
    20       H         -3.56120000  *   0.93240000  *   1.27160000  *
    21       H         -3.00390000  *   2.63080000  *   1.01560000  *
    22       H         -2.45110000  *  -0.67050000  *  -0.65810000  *
    23       H          1.38820000  *   1.14770000  *   2.05880000  *
    24       H         -0.87330000  *   1.76000000  *   0.35490000  *
    25       H          2.04460000  *   3.14490000  *   0.89240000  *
    26       H          2.64150000  *   2.14060000  *  -0.56680000  *
 


          CARTESIAN COORDINATES 

    NO.       ATOM         X         Y         Z

     1         C        0.6638   -1.0252    0.3274
     2         C       -0.2068   -0.5608   -0.8458
     3         C        0.7676   -2.4231   -0.3590
     4         C       -0.1818   -1.9316   -1.4406
     5         C        2.0113   -0.3100    0.4808
     6         C       -3.0902    1.6277    0.5404
     7         C       -1.5723   -0.0610   -0.4460
     8         C        1.8353    1.0604    1.0693
     9         C       -1.7353    1.1278    0.1478
    10         C        2.1972    2.1733    0.4266
    11         H        0.1185   -1.1105    1.2991
    12         H        0.2986    0.1709   -1.5220
    13         H        1.7769   -2.6753   -0.7619
    14         H        0.3348   -3.2413    0.2628
    15         H       -1.1459   -2.4928   -1.4212
    16         H        0.2823   -1.9570   -2.4545
    17         H        2.5539   -0.2800   -0.4941
    18         H        2.6507   -0.8967    1.1791
    19         H       -3.7436    1.7193   -0.3567
    20         H       -3.5612    0.9324    1.2716
    21         H       -3.0039    2.6308    1.0156
    22         H       -2.4511   -0.6705   -0.6581
    23         H        1.3882    1.1477    2.0588
    24         H       -0.8733    1.7600    0.3549
    25         H        2.0446    3.1449    0.8924
    26         H        2.6415    2.1406   -0.5668

  H: (PM3): J. J. P. STEWART, J. COMP. CHEM. 10, 209 (1989).
  C: (PM3): J. J. P. STEWART, J. COMP. CHEM. 10, 209 (1989).

           Empirical Formula: C10 H16  =    26 atoms



      MOLECULAR POINT GROUP   :   C1  


      RHF CALCULATION, NO. OF DOUBLY OCCUPIED LEVELS =   28

      Geometry optimization using EF

          DIAGONAL MATRIX USED AS START HESSIAN

 CYCLE:     1 TIME:   0.012 TIME LEFT:  2.00D  GRAD.:   104.020 HEAT: 24.10947
 CYCLE:     2 TIME:   0.020 TIME LEFT:  2.00D  GRAD.:   114.664 HEAT: 23.43142
 CYCLE:     3 TIME:   0.009 TIME LEFT:  2.00D  GRAD.:   137.803 HEAT: 23.42980
 CYCLE:     4 TIME:   0.016 TIME LEFT:  2.00D  GRAD.:    47.330 HEAT: 20.24075
 CYCLE:     5 TIME:   0.016 TIME LEFT:  2.00D  GRAD.:    26.304 HEAT: 19.60529
 CYCLE:     6 TIME:   0.009 TIME LEFT:  2.00D  GRAD.:    24.084 HEAT: 19.31356
 CYCLE:     7 TIME:   0.009 TIME LEFT:  2.00D  GRAD.:    37.643 HEAT: 19.21183
 CYCLE:     8 TIME:   0.016 TIME LEFT:  2.00D  GRAD.:    25.581 HEAT: 18.98095
 CYCLE:     9 TIME:   0.016 TIME LEFT:  2.00D  GRAD.:    16.333 HEAT: 18.89527
 CYCLE:    10 TIME:   0.009 TIME LEFT:  2.00D  GRAD.:    14.986 HEAT: 18.87379
 CYCLE:    11 TIME:   0.009 TIME LEFT:  2.00D  GRAD.:     8.734 HEAT: 18.82646
 CYCLE:    12 TIME:   0.016 TIME LEFT:  2.00D  GRAD.:     8.497 HEAT: 18.81410
 CYCLE:    13 TIME:   0.009 TIME LEFT:  2.00D  GRAD.:     7.769 HEAT: 18.80118
 CYCLE:    14 TIME:   0.009 TIME LEFT:  2.00D  GRAD.:     6.816 HEAT: 18.78721
 CYCLE:    15 TIME:   0.009 TIME LEFT:  2.00D  GRAD.:     6.162 HEAT: 18.77817
 CYCLE:    16 TIME:   0.009 TIME LEFT:  2.00D  GRAD.:     6.799 HEAT: 18.77041
 CYCLE:    17 TIME:   0.008 TIME LEFT:  2.00D  GRAD.:     6.075 HEAT: 18.76377
 CYCLE:    18 TIME:   0.015 TIME LEFT:  2.00D  GRAD.:     3.332 HEAT: 18.75414
 CYCLE:    19 TIME:   0.009 TIME LEFT:  2.00D  GRAD.:     2.719 HEAT: 18.74927
 CYCLE:    20 TIME:   0.009 TIME LEFT:  2.00D  GRAD.:     4.604 HEAT: 18.74725
 CYCLE:    21 TIME:   0.009 TIME LEFT:  2.00D  GRAD.:     4.609 HEAT: 18.74494
 CYCLE:    22 TIME:   0.009 TIME LEFT:  2.00D  GRAD.:     5.652 HEAT: 18.74574
 CYCLE:    23 TIME:   0.008 TIME LEFT:  2.00D  GRAD.:     4.424 HEAT: 18.74201
 CYCLE:    24 TIME:   0.008 TIME LEFT:  2.00D  GRAD.:     5.078 HEAT: 18.74216
 CYCLE:    25 TIME:   0.008 TIME LEFT:  2.00D  GRAD.:     3.304 HEAT: 18.73748
 CYCLE:    26 TIME:   0.008 TIME LEFT:  2.00D  GRAD.:     4.928 HEAT: 18.73982
 CYCLE:    27 TIME:   0.008 TIME LEFT:  2.00D  GRAD.:     1.818 HEAT: 18.73294
 CYCLE:    28 TIME:   0.009 TIME LEFT:  2.00D  GRAD.:     2.821 HEAT: 18.73303
 CYCLE:    29 TIME:   0.008 TIME LEFT:  2.00D  GRAD.:     1.005 HEAT: 18.73029
 CYCLE:    30 TIME:   0.009 TIME LEFT:  2.00D  GRAD.:     1.511 HEAT: 18.72886
 CYCLE:    31 TIME:   0.009 TIME LEFT:  2.00D  GRAD.:     1.900 HEAT: 18.72585
 CYCLE:    32 TIME:   0.009 TIME LEFT:  2.00D  GRAD.:     2.755 HEAT: 18.72123
 CYCLE:    33 TIME:   0.009 TIME LEFT:  2.00D  GRAD.:     2.228 HEAT: 18.71758
 CYCLE:    34 TIME:   0.008 TIME LEFT:  2.00D  GRAD.:     1.779 HEAT: 18.71383
 CYCLE:    35 TIME:   0.009 TIME LEFT:  2.00D  GRAD.:     2.036 HEAT: 18.70851
 CYCLE:    36 TIME:   0.009 TIME LEFT:  2.00D  GRAD.:     2.282 HEAT: 18.70273
 CYCLE:    37 TIME:   0.009 TIME LEFT:  2.00D  GRAD.:     1.609 HEAT: 18.69850
 CYCLE:    38 TIME:   0.009 TIME LEFT:  2.00D  GRAD.:     2.171 HEAT: 18.69412
 CYCLE:    39 TIME:   0.009 TIME LEFT:  2.00D  GRAD.:     2.274 HEAT: 18.68901
 CYCLE:    40 TIME:   0.009 TIME LEFT:  2.00D  GRAD.:     2.232 HEAT: 18.68374
 CYCLE:    41 TIME:   0.009 TIME LEFT:  2.00D  GRAD.:     1.729 HEAT: 18.67853
 CYCLE:    42 TIME:   0.009 TIME LEFT:  2.00D  GRAD.:     2.455 HEAT: 18.67110
 CYCLE:    43 TIME:   0.009 TIME LEFT:  2.00D  GRAD.:     4.319 HEAT: 18.65448
 CYCLE:    44 TIME:   0.009 TIME LEFT:  2.00D  GRAD.:     4.081 HEAT: 18.63799
 CYCLE:    45 TIME:   0.009 TIME LEFT:  2.00D  GRAD.:     3.061 HEAT: 18.62059
 CYCLE:    46 TIME:   0.009 TIME LEFT:  2.00D  GRAD.:     3.991 HEAT: 18.60466
 CYCLE:    47 TIME:   0.009 TIME LEFT:  2.00D  GRAD.:     7.266 HEAT: 18.58986
 CYCLE:    48 TIME:   0.008 TIME LEFT:  2.00D  GRAD.:     6.463 HEAT: 18.55445
 CYCLE:    49 TIME:   0.009 TIME LEFT:  2.00D  GRAD.:     3.778 HEAT: 18.50752
 CYCLE:    50 TIME:   0.009 TIME LEFT:  2.00D  GRAD.:     5.099 HEAT: 18.47522
 CYCLE:    51 TIME:   0.009 TIME LEFT:  2.00D  GRAD.:     6.496 HEAT: 18.44474
 CYCLE:    52 TIME:   0.009 TIME LEFT:  2.00D  GRAD.:     7.520 HEAT: 18.40455
 CYCLE:    53 TIME:   0.009 TIME LEFT:  2.00D  GRAD.:     4.535 HEAT: 18.34368
 CYCLE:    54 TIME:   0.009 TIME LEFT:  2.00D  GRAD.:     5.542 HEAT: 18.30100
 CYCLE:    55 TIME:   0.009 TIME LEFT:  2.00D  GRAD.:     7.604 HEAT: 18.27598
 CYCLE:    56 TIME:   0.009 TIME LEFT:  2.00D  GRAD.:     4.784 HEAT: 18.24779
 CYCLE:    57 TIME:   0.009 TIME LEFT:  2.00D  GRAD.:     3.519 HEAT: 18.23321
 CYCLE:    58 TIME:   0.009 TIME LEFT:  2.00D  GRAD.:     3.521 HEAT: 18.21919
 CYCLE:    59 TIME:   0.009 TIME LEFT:  2.00D  GRAD.:     3.363 HEAT: 18.20252
 CYCLE:    60 TIME:   0.009 TIME LEFT:  2.00D  GRAD.:     2.595 HEAT: 18.17831
 CYCLE:    61 TIME:   0.009 TIME LEFT:  2.00D  GRAD.:     2.495 HEAT: 18.16550
 CYCLE:    62 TIME:   0.009 TIME LEFT:  2.00D  GRAD.:     3.026 HEAT: 18.14758
 CYCLE:    63 TIME:   0.009 TIME LEFT:  2.00D  GRAD.:     3.466 HEAT: 18.12963
 CYCLE:    64 TIME:   0.009 TIME LEFT:  2.00D  GRAD.:     3.822 HEAT: 18.10535
 CYCLE:    65 TIME:   0.009 TIME LEFT:  2.00D  GRAD.:     3.253 HEAT: 18.08211
 CYCLE:    66 TIME:   0.009 TIME LEFT:  2.00D  GRAD.:     4.383 HEAT: 18.06166
 CYCLE:    67 TIME:   0.009 TIME LEFT:  2.00D  GRAD.:     3.335 HEAT: 18.03888
 CYCLE:    68 TIME:   0.009 TIME LEFT:  2.00D  GRAD.:     2.948 HEAT: 18.01830
 CYCLE:    69 TIME:   0.009 TIME LEFT:  2.00D  GRAD.:     2.331 HEAT: 17.99907
 CYCLE:    70 TIME:   0.009 TIME LEFT:  2.00D  GRAD.:     2.174 HEAT: 17.98969
 CYCLE:    71 TIME:   0.009 TIME LEFT:  2.00D  GRAD.:     2.075 HEAT: 17.98030
 CYCLE:    72 TIME:   0.009 TIME LEFT:  2.00D  GRAD.:     2.070 HEAT: 17.97132
 CYCLE:    73 TIME:   0.009 TIME LEFT:  2.00D  GRAD.:     1.785 HEAT: 17.96354
 CYCLE:    74 TIME:   0.009 TIME LEFT:  2.00D  GRAD.:     1.695 HEAT: 17.95903
 CYCLE:    75 TIME:   0.009 TIME LEFT:  2.00D  GRAD.:     1.800 HEAT: 17.95549
 CYCLE:    76 TIME:   0.009 TIME LEFT:  2.00D  GRAD.:     1.494 HEAT: 17.95175
 CYCLE:    77 TIME:   0.009 TIME LEFT:  2.00D  GRAD.:     1.616 HEAT: 17.94616
 CYCLE:    78 TIME:   0.009 TIME LEFT:  2.00D  GRAD.:     1.766 HEAT: 17.94117
 CYCLE:    79 TIME:   0.009 TIME LEFT:  2.00D  GRAD.:     1.735 HEAT: 17.93401
 CYCLE:    80 TIME:   0.009 TIME LEFT:  2.00D  GRAD.:     1.404 HEAT: 17.93043
 CYCLE:    81 TIME:   0.009 TIME LEFT:  2.00D  GRAD.:     1.418 HEAT: 17.92389
 CYCLE:    82 TIME:   0.009 TIME LEFT:  2.00D  GRAD.:     1.680 HEAT: 17.92014
 CYCLE:    83 TIME:   0.009 TIME LEFT:  2.00D  GRAD.:     1.918 HEAT: 17.91240
 CYCLE:    84 TIME:   0.009 TIME LEFT:  2.00D  GRAD.:     1.917 HEAT: 17.90575
 CYCLE:    85 TIME:   0.009 TIME LEFT:  2.00D  GRAD.:     2.405 HEAT: 17.89898
 CYCLE:    86 TIME:   0.009 TIME LEFT:  2.00D  GRAD.:     2.249 HEAT: 17.89131
 CYCLE:    87 TIME:   0.009 TIME LEFT:  2.00D  GRAD.:     2.700 HEAT: 17.88236
 CYCLE:    88 TIME:   0.009 TIME LEFT:  2.00D  GRAD.:     2.304 HEAT: 17.87016
 CYCLE:    89 TIME:   0.009 TIME LEFT:  2.00D  GRAD.:     1.907 HEAT: 17.86231
 CYCLE:    90 TIME:   0.009 TIME LEFT:  2.00D  GRAD.:     1.692 HEAT: 17.85584
 CYCLE:    91 TIME:   0.009 TIME LEFT:  2.00D  GRAD.:     1.809 HEAT: 17.85218
 CYCLE:    92 TIME:   0.009 TIME LEFT:  2.00D  GRAD.:     1.504 HEAT: 17.84799
 CYCLE:    93 TIME:   0.009 TIME LEFT:  2.00D  GRAD.:     1.195 HEAT: 17.84453
 CYCLE:    94 TIME:   0.009 TIME LEFT:  2.00D  GRAD.:     1.015 HEAT: 17.84205
 CYCLE:    95 TIME:   0.009 TIME LEFT:  2.00D  GRAD.:     0.913 HEAT: 17.84028
 CYCLE:    96 TIME:   0.009 TIME LEFT:  2.00D  GRAD.:     0.746 HEAT: 17.83879
 CYCLE:    97 TIME:   0.009 TIME LEFT:  2.00D  GRAD.:     0.699 HEAT: 17.83769
 CYCLE:    98 TIME:   0.009 TIME LEFT:  2.00D  GRAD.:     0.765 HEAT: 17.83657
 CYCLE:    99 TIME:   0.009 TIME LEFT:  2.00D  GRAD.:     0.857 HEAT: 17.83519
 CYCLE:   100 TIME:   0.009 TIME LEFT:  2.00D  GRAD.:     1.003 HEAT: 17.83343
 CYCLE:   101 TIME:   0.009 TIME LEFT:  2.00D  GRAD.:     1.081 HEAT: 17.83109
 CYCLE:   102 TIME:   0.009 TIME LEFT:  2.00D  GRAD.:     1.045 HEAT: 17.82859
 CYCLE:   103 TIME:   0.009 TIME LEFT:  2.00D  GRAD.:     0.997 HEAT: 17.82652
 CYCLE:   104 TIME:   0.009 TIME LEFT:  2.00D  GRAD.:     0.867 HEAT: 17.82508
 CYCLE:   105 TIME:   0.009 TIME LEFT:  2.00D  GRAD.:     0.770 HEAT: 17.82398
 CYCLE:   106 TIME:   0.009 TIME LEFT:  2.00D  GRAD.:     0.645 HEAT: 17.82294
 CYCLE:   107 TIME:   0.009 TIME LEFT:  2.00D  GRAD.:     0.561 HEAT: 17.82191
 CYCLE:   108 TIME:   0.009 TIME LEFT:  2.00D  GRAD.:     0.446 HEAT: 17.82132
 CYCLE:   109 TIME:   0.009 TIME LEFT:  2.00D  GRAD.:     0.368 HEAT: 17.82098
 CYCLE:   110 TIME:   0.009 TIME LEFT:  2.00D  GRAD.:     0.410 HEAT: 17.82066
 CYCLE:   111 TIME:   0.009 TIME LEFT:  2.00D  GRAD.:     0.553 HEAT: 17.82021
 CYCLE:   112 TIME:   0.010 TIME LEFT:  2.00D  GRAD.:     0.771 HEAT: 17.81942
 CYCLE:   113 TIME:   0.009 TIME LEFT:  2.00D  GRAD.:     0.886 HEAT: 17.81808
 CYCLE:   114 TIME:   0.009 TIME LEFT:  2.00D  GRAD.:     0.664 HEAT: 17.81655
 CYCLE:   115 TIME:   0.009 TIME LEFT:  2.00D  GRAD.:     0.618 HEAT: 17.81588
 CYCLE:   116 TIME:   0.009 TIME LEFT:  2.00D  GRAD.:     0.755 HEAT: 17.81492
 CYCLE:   117 TIME:   0.009 TIME LEFT:  2.00D  GRAD.:     0.915 HEAT: 17.81369
 CYCLE:   118 TIME:   0.009 TIME LEFT:  2.00D  GRAD.:     0.996 HEAT: 17.81149
 CYCLE:   119 TIME:   0.009 TIME LEFT:  2.00D  GRAD.:     0.877 HEAT: 17.81006
 CYCLE:   120 TIME:   0.009 TIME LEFT:  2.00D  GRAD.:     1.059 HEAT: 17.80755
 CYCLE:   121 TIME:   0.009 TIME LEFT:  2.00D  GRAD.:     0.946 HEAT: 17.80645
 CYCLE:   122 TIME:   0.009 TIME LEFT:  2.00D  GRAD.:     0.608 HEAT: 17.80402
 CYCLE:   123 TIME:   0.009 TIME LEFT:  2.00D  GRAD.:     0.504 HEAT: 17.80323
 CYCLE:   124 TIME:   0.009 TIME LEFT:  2.00D  GRAD.:     0.444 HEAT: 17.80243
 CYCLE:   125 TIME:   0.009 TIME LEFT:  2.00D  GRAD.:     0.311 HEAT: 17.80204
 CYCLE:   126 TIME:   0.009 TIME LEFT:  2.00D  GRAD.:     0.219 HEAT: 17.80181
 CYCLE:   127 TIME:   0.009 TIME LEFT:  2.00D  GRAD.:     0.194 HEAT: 17.80175
 CYCLE:   128 TIME:   0.008 TIME LEFT:  2.00D  GRAD.:     0.173 HEAT: 17.80168
 CYCLE:   129 TIME:   0.009 TIME LEFT:  2.00D  GRAD.:     0.206 HEAT: 17.80155
 CYCLE:   130 TIME:   0.009 TIME LEFT:  2.00D  GRAD.:     0.324 HEAT: 17.80138
 CYCLE:   131 TIME:   0.009 TIME LEFT:  2.00D  GRAD.:     0.346 HEAT: 17.80120
 CYCLE:   132 TIME:   0.009 TIME LEFT:  2.00D  GRAD.:     0.425 HEAT: 17.80083
 CYCLE:   133 TIME:   0.009 TIME LEFT:  2.00D  GRAD.:     0.358 HEAT: 17.80051
 CYCLE:   134 TIME:   0.009 TIME LEFT:  2.00D  GRAD.:     0.490 HEAT: 17.79936
 CYCLE:   135 TIME:   0.009 TIME LEFT:  2.00D  GRAD.:     0.702 HEAT: 17.79775
 CYCLE:   136 TIME:   0.009 TIME LEFT:  2.00D  GRAD.:     0.598 HEAT: 17.79677
 CYCLE:   137 TIME:   0.009 TIME LEFT:  2.00D  GRAD.:     0.480 HEAT: 17.79575
 CYCLE:   138 TIME:   0.009 TIME LEFT:  2.00D  GRAD.:     0.349 HEAT: 17.79550
 CYCLE:   139 TIME:   0.009 TIME LEFT:  2.00D  GRAD.:     0.157 HEAT: 17.79527
 CYCLE:   140 TIME:   0.009 TIME LEFT:  2.00D  GRAD.:     0.146 HEAT: 17.79517
 CYCLE:   141 TIME:   0.009 TIME LEFT:  2.00D  GRAD.:     0.113 HEAT: 17.79514
 CYCLE:   142 TIME:   0.009 TIME LEFT:  2.00D  GRAD.:     0.100 HEAT: 17.79511
 CYCLE:   143 TIME:   0.008 TIME LEFT:  2.00D  GRAD.:     0.087 HEAT: 17.79509
 CYCLE:   144 TIME:   0.009 TIME LEFT:  2.00D  GRAD.:     0.129 HEAT: 17.79506
 CYCLE:   145 TIME:   0.009 TIME LEFT:  2.00D  GRAD.:     0.129 HEAT: 17.79503
 CYCLE:   146 TIME:   0.009 TIME LEFT:  2.00D  GRAD.:     0.255 HEAT: 17.79495
 CYCLE:   147 TIME:   0.008 TIME LEFT:  2.00D  GRAD.:     0.178 HEAT: 17.79489
 CYCLE:   148 TIME:   0.009 TIME LEFT:  2.00D  GRAD.:     0.133 HEAT: 17.79477
 CYCLE:   149 TIME:   0.008 TIME LEFT:  2.00D  GRAD.:     0.122 HEAT: 17.79472
 CYCLE:   150 TIME:   0.009 TIME LEFT:  2.00D  GRAD.:     0.156 HEAT: 17.79462
 CYCLE:   151 TIME:   0.008 TIME LEFT:  2.00D  GRAD.:     0.127 HEAT: 17.79461
 CYCLE:   152 TIME:   0.009 TIME LEFT:  2.00D  GRAD.:     0.139 HEAT: 17.79457
 CYCLE:   153 TIME:   0.008 TIME LEFT:  2.00D  GRAD.:     0.138 HEAT: 17.79453
 CYCLE:   154 TIME:   0.009 TIME LEFT:  2.00D  GRAD.:     0.187 HEAT: 17.79445
 CYCLE:   155 TIME:   0.009 TIME LEFT:  2.00D  GRAD.:     0.223 HEAT: 17.79439
 CYCLE:   156 TIME:   0.009 TIME LEFT:  2.00D  GRAD.:     0.244 HEAT: 17.79431
 CYCLE:   157 TIME:   0.009 TIME LEFT:  2.00D  GRAD.:     0.436 HEAT: 17.79410
 CYCLE:   158 TIME:   0.009 TIME LEFT:  2.00D  GRAD.:     0.410 HEAT: 17.79388
 CYCLE:   159 TIME:   0.009 TIME LEFT:  2.00D  GRAD.:     0.245 HEAT: 17.79320
 CYCLE:   160 TIME:   0.009 TIME LEFT:  2.00D  GRAD.:     0.392 HEAT: 17.79279
 CYCLE:   161 TIME:   0.009 TIME LEFT:  2.00D  GRAD.:     0.267 HEAT: 17.79252
 CYCLE:   162 TIME:   0.009 TIME LEFT:  2.00D  GRAD.:     0.178 HEAT: 17.79233
 CYCLE:   163 TIME:   0.009 TIME LEFT:  2.00D  GRAD.:     0.157 HEAT: 17.79227
 CYCLE:   164 TIME:   0.009 TIME LEFT:  2.00D  GRAD.:     0.093 HEAT: 17.79222
 CYCLE:   165 TIME:   0.008 TIME LEFT:  2.00D  GRAD.:     0.064 HEAT: 17.79221
 CYCLE:   166 TIME:   0.009 TIME LEFT:  2.00D  GRAD.:     0.057 HEAT: 17.79220
 CYCLE:   167 TIME:   0.009 TIME LEFT:  2.00D  GRAD.:     0.031 HEAT: 17.79219

     RMS GRADIENT =  0.03100  IS LESS THAN CUTOFF =  0.05000



 -------------------------------------------------------------------------------
pm3  precise nosym
 InChI=1S/C10H16/c1-3-5-9-7-8-10(9)6-4-2/h3-4,6,9-10H,1,5,7-8H2,2H3



     GEOMETRY OPTIMISED USING EIGENVECTOR FOLLOWING (EF).     
     SCF FIELD WAS ACHIEVED                                   


                              PM3 CALCULATION
                                                       MOPAC2012 (Version: 13.159M)
                                                       Mon Jun  2 11:08:24 2014
                                                       No. of days left =   6




          FINAL HEAT OF FORMATION =         17.79219 KCAL/MOL =      74.44254 KJ/MOL


          TOTAL ENERGY            =      -1430.95548 EV
          ELECTRONIC ENERGY       =      -8153.96350 EV  POINT GROUP:     C1  
          CORE-CORE REPULSION     =       6723.00803 EV
          COSMO AREA              =        202.01 SQUARE ANGSTROMS
          COSMO VOLUME            =        209.26 CUBIC ANGSTROMS

          GRADIENT NORM           =          0.03100
          IONIZATION POTENTIAL    =          9.608825 EV
          HOMO LUMO ENERGIES (EV) =         -9.609  1.132
          NO. OF FILLED LEVELS    =         28
          MOLECULAR WEIGHT        =        136.236

          MOLECULAR DIMENSIONS (Angstroms)

            Atom       Atom       Distance
            H    19    H    26     7.14461
            H    21    H    14     6.18842
            H    23    H    16     4.43983


          SCF CALCULATIONS        =        175
          COMPUTATION TIME        =          1.544 SECONDS




   ATOM   CHEMICAL          X               Y               Z
  NUMBER   SYMBOL      (ANGSTROMS)     (ANGSTROMS)     (ANGSTROMS)
 
     1       C          0.63457469  *  -0.94420316  *   0.30422084  *
     2       C         -0.22836388  *  -0.50664151  *  -0.91783896  *
     3       C          0.70095972  *  -2.37992962  *  -0.26922458  *
     4       C         -0.18789836  *  -1.95945511  *  -1.45271533  *
     5       C          1.98019547  *  -0.25926529  *   0.43394506  *
     6       C         -3.15779827  *   1.49757906  *   0.58733217  *
     7       C         -1.58273588  *   0.01719322  *  -0.61781191  *
     8       C          1.85187395  *   1.11225871  *   0.99862462  *
     9       C         -1.81173452  *   0.95408985  *   0.30399554  *
    10       C          2.47419663  *   2.16809187  *   0.48760517  *
    11       H          0.07880869  *  -0.88324846  *   1.26489741  *
    12       H          0.29213703  *   0.21805180  *  -1.58122315  *
    13       H          1.71183331  *  -2.71620649  *  -0.54777080  *
    14       H          0.26938548  *  -3.15344118  *   0.38292702  *
    15       H         -1.16613815  *  -2.46299559  *  -1.49600130  *
    16       H          0.27717201  *  -2.06877447  *  -2.44361823  *
    17       H          2.50065366  *  -0.24200817  *  -0.54556454  *
    18       H          2.62775984  *  -0.85608417  *   1.10833398  *
    19       H         -3.94231677  *   1.04630521  *  -0.03473474  *
    20       H         -3.42866463  *   1.32678629  *   1.63796294  *
    21       H         -3.17899421  *   2.58179902  *   0.41285063  *
    22       H         -2.40144483  *  -0.39954540  *  -1.21874807  *
    23       H          1.20920402  *   1.20952969  *   1.88320021  *
    24       H         -0.98505447  *   1.36670939  *   0.89900205  *
    25       H          2.38758475  *   3.16211532  *   0.91537768  *
    26       H          3.11268665  *   2.11680883  *  -0.39025468  *

           Empirical Formula: C10 H16  =    26 atoms



      MOLECULAR POINT GROUP   :   C1  


                  EIGENVALUES  
 -41.45362 -35.17973 -34.13382 -28.27901 -27.48443 -23.50274 -22.41238 -20.07894
 -19.37995 -18.41038 -17.01392 -16.67228 -15.77727 -15.16496 -15.07199 -14.34303
 -14.22426 -14.13788 -13.10020 -12.88981 -12.64723 -12.38197 -12.20734 -11.78257
 -11.57795 -11.24855 -10.13407  -9.60883   1.13203   1.14938   3.23240   3.27950
   3.35270   3.57149   3.67554   3.77794   3.81187   3.92220   3.95818   4.05872
   4.15911   4.18845   4.26053   4.42115   4.50285   4.53525   4.56288   4.59426
   4.65540   4.72133   5.25516   5.48692   5.62061   5.81252   5.89248   6.01960


              NET ATOMIC CHARGES AND DIPOLE CONTRIBUTIONS

  ATOM NO.   TYPE          CHARGE      No. of ELECS.   s-Pop       p-Pop       
    1          C          -0.088639        4.0886     1.19376     2.89488
    2          C          -0.057914        4.0579     1.18003     2.87789
    3          C          -0.109465        4.1095     1.17360     2.93586
    4          C          -0.106838        4.1068     1.17395     2.93289
    5          C          -0.061476        4.0615     1.14904     2.91243
    6          C          -0.071147        4.0711     1.12464     2.94651
    7          C          -0.140679        4.1407     1.19447     2.94621
    8          C          -0.137149        4.1371     1.19563     2.94152
    9          C          -0.157016        4.1570     1.19367     2.96334
   10          C          -0.167337        4.1673     1.18267     2.98467
   11          H           0.079376        0.9206     0.92062
   12          H           0.082243        0.9178     0.91776
   13          H           0.057707        0.9423     0.94229
   14          H           0.056258        0.9437     0.94374
   15          H           0.059524        0.9405     0.94048
   16          H           0.054340        0.9457     0.94566
   17          H           0.057874        0.9421     0.94213
   18          H           0.057974        0.9420     0.94203
   19          H           0.039968        0.9600     0.96003
   20          H           0.042534        0.9575     0.95747
   21          H           0.043296        0.9567     0.95670
   22          H           0.103071        0.8969     0.89693
   23          H           0.097903        0.9021     0.90210
   24          H           0.104372        0.8956     0.89563
   25          H           0.079364        0.9206     0.92064
   26          H           0.081856        0.9181     0.91814
 DIPOLE           X         Y         Z       TOTAL
 POINT-CHG.     0.003    -0.145     0.065     0.159
 HYBRID         0.003     0.027     0.005     0.028
 SUM            0.006    -0.118     0.071     0.137


          ATOMIC ORBITAL ELECTRON POPULATIONS

    Atom      s        px        py        pz   
    1  C   1.19376   0.95922   0.95415   0.98150
    2  C   1.18003   0.94673   0.95859   0.97257
    3  C   1.17360   0.99942   0.95818   0.97826
    4  C   1.17395   1.00029   0.95981   0.97278
    5  C   1.14904   0.96179   0.94436   1.00628
    6  C   1.12464   0.94551   0.99723   1.00377
    7  C   1.19447   0.97049   0.98522   0.99049
    8  C   1.19563   0.99334   0.95540   0.99278
    9  C   1.19367   0.98213   0.98629   0.99493
   10  C   1.18267   1.00372   0.97489   1.00605
   11  H   0.92062
   12  H   0.91776
   13  H   0.94229
   14  H   0.94374
   15  H   0.94048
   16  H   0.94566
   17  H   0.94213
   18  H   0.94203
   19  H   0.96003
   20  H   0.95747
   21  H   0.95670
   22  H   0.89693
   23  H   0.90210
   24  H   0.89563
   25  H   0.92064
   26  H   0.91814
 *******************************************************************************
 ** Site#: 14399           For non-commercial use only        Version 13.159M **
 *******************************************************************************
 ** Cite this work as: MOPAC2012, James J. P. Stewart, Stewart Computational  **
 ** Chemistry, Version 13.159M web: HTTP://OpenMOPAC.net  Days remaining:   6 **
 *******************************************************************************
 **                                                                           **
 **                                MOPAC2012                                  **
 **                                                                           **
 *******************************************************************************

                            PM3 CALCULATION RESULTS


 *******************************************************************************
 *  CALCULATION DONE:                                Mon Jun  2 11:08:24 2014  *
 *  PM3      - The PM3 Hamiltonian to be used
 *  OLDGEO   - PREVIOUS GEOMETRY TO BE USED
 *  PRECISE  - CRITERIA TO BE INCREASED BY 100 TIMES
 *  NOSYM    - POINT-GROUP SYMMETRY SET TO C1
 *  T=       - A TIME OF 172800.0 SECONDS REQUESTED
 *  DUMP=N   - RESTART FILE WRITTEN EVERY  7200.000 SECONDS
 *  THERMO   - THERMODYNAMIC QUANTITIES TO BE CALCULATED
 *******************************************************************************
oldgeo thermo nosym precise  pm3

   ATOM   CHEMICAL          X               Y               Z
  NUMBER   SYMBOL      (ANGSTROMS)     (ANGSTROMS)     (ANGSTROMS)
 
     1       C          0.63457469  *  -0.94420316  *   0.30422084  *
     2       C         -0.22836388  *  -0.50664151  *  -0.91783896  *
     3       C          0.70095972  *  -2.37992962  *  -0.26922458  *
     4       C         -0.18789836  *  -1.95945511  *  -1.45271533  *
     5       C          1.98019547  *  -0.25926529  *   0.43394506  *
     6       C         -3.15779827  *   1.49757906  *   0.58733217  *
     7       C         -1.58273588  *   0.01719322  *  -0.61781191  *
     8       C          1.85187395  *   1.11225871  *   0.99862462  *
     9       C         -1.81173452  *   0.95408985  *   0.30399554  *
    10       C          2.47419663  *   2.16809187  *   0.48760517  *
    11       H          0.07880869  *  -0.88324846  *   1.26489741  *
    12       H          0.29213703  *   0.21805180  *  -1.58122315  *
    13       H          1.71183331  *  -2.71620649  *  -0.54777080  *
    14       H          0.26938548  *  -3.15344118  *   0.38292702  *
    15       H         -1.16613815  *  -2.46299559  *  -1.49600130  *
    16       H          0.27717201  *  -2.06877447  *  -2.44361823  *
    17       H          2.50065366  *  -0.24200817  *  -0.54556454  *
    18       H          2.62775984  *  -0.85608417  *   1.10833398  *
    19       H         -3.94231677  *   1.04630521  *  -0.03473474  *
    20       H         -3.42866463  *   1.32678629  *   1.63796294  *
    21       H         -3.17899421  *   2.58179902  *   0.41285063  *
    22       H         -2.40144483  *  -0.39954540  *  -1.21874807  *
    23       H          1.20920402  *   1.20952969  *   1.88320021  *
    24       H         -0.98505447  *   1.36670939  *   0.89900205  *
    25       H          2.38758475  *   3.16211532  *   0.91537768  *
    26       H          3.11268665  *   2.11680883  *  -0.39025468  *
 


          CARTESIAN COORDINATES 

    NO.       ATOM         X         Y         Z

     1         C        0.6346   -0.9442    0.3042
     2         C       -0.2284   -0.5066   -0.9178
     3         C        0.7010   -2.3799   -0.2692
     4         C       -0.1879   -1.9595   -1.4527
     5         C        1.9802   -0.2593    0.4339
     6         C       -3.1578    1.4976    0.5873
     7         C       -1.5827    0.0172   -0.6178
     8         C        1.8519    1.1123    0.9986
     9         C       -1.8117    0.9541    0.3040
    10         C        2.4742    2.1681    0.4876
    11         H        0.0788   -0.8832    1.2649
    12         H        0.2921    0.2181   -1.5812
    13         H        1.7118   -2.7162   -0.5478
    14         H        0.2694   -3.1534    0.3829
    15         H       -1.1661   -2.4630   -1.4960
    16         H        0.2772   -2.0688   -2.4436
    17         H        2.5007   -0.2420   -0.5456
    18         H        2.6278   -0.8561    1.1083
    19         H       -3.9423    1.0463   -0.0347
    20         H       -3.4287    1.3268    1.6380
    21         H       -3.1790    2.5818    0.4129
    22         H       -2.4014   -0.3995   -1.2187
    23         H        1.2092    1.2095    1.8832
    24         H       -0.9851    1.3667    0.8990
    25         H        2.3876    3.1621    0.9154
    26         H        3.1127    2.1168   -0.3903

  H: (PM3): J. J. P. STEWART, J. COMP. CHEM. 10, 209 (1989).
  C: (PM3): J. J. P. STEWART, J. COMP. CHEM. 10, 209 (1989).

           Empirical Formula: C10 H16  =    26 atoms



      MOLECULAR POINT GROUP   :   C1  


      RHF CALCULATION, NO. OF DOUBLY OCCUPIED LEVELS =   28



          HEAT OF FORMATION =      17.792193 KCALS/MOLE


          INTERNAL COORDINATE DERIVATIVES

   NUMBER  ATOM       BOND         ANGLE      DIHEDRAL

     1       C     -0.002176     0.001677     0.000293
     2       C     -0.000317     0.001565     0.002319
     3       C     -0.003998     0.001885    -0.002023
     4       C     -0.004965     0.000959    -0.001596
     5       C      0.001860     0.000216     0.000693
     6       C      0.002576     0.005698    -0.001598
     7       C     -0.000299     0.002715     0.002946
     8       C      0.007429     0.000913    -0.001259
     9       C      0.001502     0.000722     0.000190
    10       C      0.000763     0.004167     0.001680
    11       H      0.003557     0.002790     0.006679
    12       H      0.002558    -0.005582     0.004240
    13       H     -0.007132    -0.003902    -0.008119
    14       H      0.006247    -0.003952     0.007162
    15       H     -0.001520    -0.000544    -0.001951
    16       H      0.005893    -0.000124     0.004456
    17       H     -0.000943    -0.000286    -0.005188
    18       H     -0.000215    -0.000936    -0.001564
    19       H      0.000292     0.000092     0.006051
    20       H      0.000576    -0.000772     0.001119
    21       H     -0.000237    -0.003148    -0.000092
    22       H     -0.005097    -0.007474    -0.006917
    23       H      0.001460     0.001868    -0.001066
    24       H     -0.002107     0.000958    -0.008088
    25       H     -0.003088     0.002353     0.000227
    26       H     -0.002620    -0.001857     0.001407


          GRADIENT NORM =   0.03074


          TIME FOR SCF CALCULATION =    0.01

          TIME FOR DERIVATIVES     =    0.01

          MOLECULAR WEIGHT =  136.24



          ROTATIONAL CONSTANTS IN CM(-1)

          A =    0.04454318   B =    0.03430499   C =    0.02158700



           PRINCIPAL MOMENTS OF INERTIA IN UNITS OF 10**(-40)*GRAM-CM**2

          A =      628.4413   B =      815.9971   C =     1296.7422


          ORIENTATION OF MOLECULE IN FORCE CALCULATION

    NO.       ATOM         X         Y         Z

     1          C      -0.8261    0.7666   -0.1046
     2          C       0.7326    0.7666   -0.1046
     3          C      -0.8163    2.3140   -0.1046
     4          C       0.7217    2.3146   -0.0597
     5          C      -1.4805    0.1449   -1.3220
     6          C       1.7370   -1.7828    2.6075
     7          C       1.3943    0.1071    1.0469
     8          C      -1.4672   -1.3425   -1.2595
     9          C       1.0613   -1.1115    1.4760
    10          C      -1.1146   -2.1083   -2.2855
    11          H      -1.2545    0.3329    0.8248
    12          H       1.1680    0.3596   -1.0432
    13          H      -1.2519    2.7754   -1.0046
    14          H      -1.3058    2.7746    0.7661
    15          H       1.1559    2.7531    0.8523
    16          H       1.2105    2.8001   -0.9173
    17          H      -0.9958    0.5111   -2.2502
    18          H      -2.5353    0.4832   -1.3796
    19          H       2.5323   -1.1723    3.0556
    20          H       1.0153   -2.0207    3.4006
    21          H       2.1899   -2.7279    2.2787
    22          H       2.2017    0.6762    1.5257
    23          H      -1.7776   -1.7862   -0.3047
    24          H       0.2530   -1.6743    0.9886
    25          H      -1.1230   -3.1928   -2.2362
    26          H      -0.7943   -1.7100   -3.2445


    FIRST DERIVATIVES WILL BE USED IN THE CALCULATION OF SECOND DERIVATIVES

          ESTIMATED TIME TO COMPLETE CALCULATION =        3.85 SECONDS

    FOR POINT-GROUP C1   THERE ARE   1 UNIQUE SYMMETRY FUNCTIONS.

 STEP:   1 TIME =     0.04 SECS, INTEGRAL =      0.04 TIME LEFT: 172799.95
 STEP:   2 TIME =     0.04 SECS, INTEGRAL =      0.08 TIME LEFT: 172799.91
 STEP:   3 TIME =     0.04 SECS, INTEGRAL =      0.12 TIME LEFT: 172799.87
 STEP:   4 TIME =     0.04 SECS, INTEGRAL =      0.16 TIME LEFT: 172799.83
 STEP:   5 TIME =     0.04 SECS, INTEGRAL =      0.20 TIME LEFT: 172799.79
 STEP:   6 TIME =     0.04 SECS, INTEGRAL =      0.23 TIME LEFT: 172799.75
 STEP:   7 TIME =     0.04 SECS, INTEGRAL =      0.27 TIME LEFT: 172799.71
 STEP:   8 TIME =     0.04 SECS, INTEGRAL =      0.31 TIME LEFT: 172799.67
 STEP:   9 TIME =     0.04 SECS, INTEGRAL =      0.35 TIME LEFT: 172799.64
 STEP:  10 TIME =     0.04 SECS, INTEGRAL =      0.39 TIME LEFT: 172799.60
 STEP:  11 TIME =     0.04 SECS, INTEGRAL =      0.43 TIME LEFT: 172799.56
 STEP:  12 TIME =     0.04 SECS, INTEGRAL =      0.47 TIME LEFT: 172799.52
 STEP:  13 TIME =     0.04 SECS, INTEGRAL =      0.51 TIME LEFT: 172799.48
 STEP:  14 TIME =     0.04 SECS, INTEGRAL =      0.54 TIME LEFT: 172799.44
 STEP:  15 TIME =     0.04 SECS, INTEGRAL =      0.58 TIME LEFT: 172799.40
 STEP:  16 TIME =     0.04 SECS, INTEGRAL =      0.62 TIME LEFT: 172799.37
 STEP:  17 TIME =     0.04 SECS, INTEGRAL =      0.66 TIME LEFT: 172799.33
 STEP:  18 TIME =     0.04 SECS, INTEGRAL =      0.70 TIME LEFT: 172799.29
 STEP:  19 TIME =     0.04 SECS, INTEGRAL =      0.74 TIME LEFT: 172799.25
 STEP:  20 TIME =     0.04 SECS, INTEGRAL =      0.78 TIME LEFT: 172799.21
 STEP:  21 TIME =     0.04 SECS, INTEGRAL =      0.82 TIME LEFT: 172799.17
 STEP:  22 TIME =     0.04 SECS, INTEGRAL =      0.86 TIME LEFT: 172799.13
 STEP:  23 TIME =     0.04 SECS, INTEGRAL =      0.90 TIME LEFT: 172799.09
 STEP:  24 TIME =     0.04 SECS, INTEGRAL =      0.94 TIME LEFT: 172799.05
 STEP:  25 TIME =     0.04 SECS, INTEGRAL =      0.97 TIME LEFT: 172799.01
 STEP:  26 TIME =     0.04 SECS, INTEGRAL =      1.01 TIME LEFT: 172798.97
 STEP:  27 TIME =     0.04 SECS, INTEGRAL =      1.05 TIME LEFT: 172798.93
 STEP:  28 TIME =     0.04 SECS, INTEGRAL =      1.09 TIME LEFT: 172798.89
 STEP:  29 TIME =     0.04 SECS, INTEGRAL =      1.13 TIME LEFT: 172798.86
 STEP:  30 TIME =     0.04 SECS, INTEGRAL =      1.17 TIME LEFT: 172798.82
 STEP:  31 TIME =     0.04 SECS, INTEGRAL =      1.21 TIME LEFT: 172798.78
 STEP:  32 TIME =     0.04 SECS, INTEGRAL =      1.25 TIME LEFT: 172798.74
 STEP:  33 TIME =     0.04 SECS, INTEGRAL =      1.29 TIME LEFT: 172798.70
 STEP:  34 TIME =     0.04 SECS, INTEGRAL =      1.33 TIME LEFT: 172798.66
 STEP:  35 TIME =     0.04 SECS, INTEGRAL =      1.37 TIME LEFT: 172798.62
 STEP:  36 TIME =     0.04 SECS, INTEGRAL =      1.41 TIME LEFT: 172798.58
 STEP:  37 TIME =     0.04 SECS, INTEGRAL =      1.45 TIME LEFT: 172798.53
 STEP:  38 TIME =     0.05 SECS, INTEGRAL =      1.50 TIME LEFT: 172798.49
 STEP:  39 TIME =     0.04 SECS, INTEGRAL =      1.54 TIME LEFT: 172798.44
 STEP:  40 TIME =     0.04 SECS, INTEGRAL =      1.58 TIME LEFT: 172798.40
 STEP:  41 TIME =     0.04 SECS, INTEGRAL =      1.62 TIME LEFT: 172798.36
 STEP:  42 TIME =     0.04 SECS, INTEGRAL =      1.66 TIME LEFT: 172798.33
 STEP:  43 TIME =     0.04 SECS, INTEGRAL =      1.70 TIME LEFT: 172798.29
 STEP:  44 TIME =     0.04 SECS, INTEGRAL =      1.74 TIME LEFT: 172798.25
 STEP:  45 TIME =     0.04 SECS, INTEGRAL =      1.78 TIME LEFT: 172798.21
 STEP:  46 TIME =     0.04 SECS, INTEGRAL =      1.82 TIME LEFT: 172798.17
 STEP:  47 TIME =     0.04 SECS, INTEGRAL =      1.86 TIME LEFT: 172798.13
 STEP:  48 TIME =     0.04 SECS, INTEGRAL =      1.90 TIME LEFT: 172798.09
 STEP:  49 TIME =     0.04 SECS, INTEGRAL =      1.94 TIME LEFT: 172798.05
 STEP:  50 TIME =     0.04 SECS, INTEGRAL =      1.98 TIME LEFT: 172798.01
 STEP:  51 TIME =     0.04 SECS, INTEGRAL =      2.02 TIME LEFT: 172797.97
 STEP:  52 TIME =     0.04 SECS, INTEGRAL =      2.05 TIME LEFT: 172797.93
 STEP:  53 TIME =     0.04 SECS, INTEGRAL =      2.09 TIME LEFT: 172797.89
 STEP:  54 TIME =     0.04 SECS, INTEGRAL =      2.13 TIME LEFT: 172797.85
 STEP:  55 TIME =     0.04 SECS, INTEGRAL =      2.17 TIME LEFT: 172797.81
 STEP:  56 TIME =     0.04 SECS, INTEGRAL =      2.21 TIME LEFT: 172797.77
 STEP:  57 TIME =     0.04 SECS, INTEGRAL =      2.25 TIME LEFT: 172797.74
 STEP:  58 TIME =     0.04 SECS, INTEGRAL =      2.29 TIME LEFT: 172797.70
 STEP:  59 TIME =     0.04 SECS, INTEGRAL =      2.33 TIME LEFT: 172797.66
 STEP:  60 TIME =     0.04 SECS, INTEGRAL =      2.37 TIME LEFT: 172797.62
 STEP:  61 TIME =     0.04 SECS, INTEGRAL =      2.41 TIME LEFT: 172797.58
 STEP:  62 TIME =     0.04 SECS, INTEGRAL =      2.45 TIME LEFT: 172797.54
 STEP:  63 TIME =     0.04 SECS, INTEGRAL =      2.49 TIME LEFT: 172797.50
 STEP:  64 TIME =     0.04 SECS, INTEGRAL =      2.53 TIME LEFT: 172797.46
 STEP:  65 TIME =     0.04 SECS, INTEGRAL =      2.57 TIME LEFT: 172797.42
 STEP:  66 TIME =     0.04 SECS, INTEGRAL =      2.61 TIME LEFT: 172797.38
 STEP:  67 TIME =     0.04 SECS, INTEGRAL =      2.65 TIME LEFT: 172797.34
 STEP:  68 TIME =     0.04 SECS, INTEGRAL =      2.69 TIME LEFT: 172797.30
 STEP:  69 TIME =     0.04 SECS, INTEGRAL =      2.73 TIME LEFT: 172797.26
 STEP:  70 TIME =     0.04 SECS, INTEGRAL =      2.77 TIME LEFT: 172797.22
 STEP:  71 TIME =     0.04 SECS, INTEGRAL =      2.81 TIME LEFT: 172797.18
 STEP:  72 TIME =     0.04 SECS, INTEGRAL =      2.85 TIME LEFT: 172797.14
 STEP:  73 TIME =     0.04 SECS, INTEGRAL =      2.89 TIME LEFT: 172797.10
 STEP:  74 TIME =     0.04 SECS, INTEGRAL =      2.92 TIME LEFT: 172797.06
 STEP:  75 TIME =     0.04 SECS, INTEGRAL =      2.96 TIME LEFT: 172797.02
 STEP:  76 TIME =     0.04 SECS, INTEGRAL =      3.01 TIME LEFT: 172796.98
 STEP:  77 TIME =     0.04 SECS, INTEGRAL =      3.05 TIME LEFT: 172796.94
 STEP:  78 TIME =     0.04 SECS, INTEGRAL =      3.08 TIME LEFT: 172796.90

(To convert to Hartree/Bohr^2, multiply by (10^(-21) x N x a0^2)/(4.184 x 627.51) = 0.0642)


           FORCE MATRIX IN MILLIDYNES/ANGSTROM


                  C  1       C  2       C  3       C  4       C  5       C  6
 ------------------------------------------------------------------------------
     C    1  14.379531
     C    2   3.110927  14.761534
     C    3   3.482048   1.816617  14.445380
     C    4   1.811631   3.449038   3.771376  14.433789
     C    5   4.260823   0.522161   0.544595   0.041799  14.774255
     C    6   0.008798   0.139409   0.001885   0.010028   0.001615  14.727732
     C    7   0.543341   5.075754   0.040217   0.573171   0.033466   0.848511
     C    8   0.692553   0.022737   0.050371   0.005290   4.940350   0.002476
     C    9   0.050379   0.823407   0.006360   0.048472   0.004215   5.282222
     C   10   0.043774   0.003562   0.008169   0.001424   0.834711   0.001545
     H   11   4.394892   0.436017   0.426674   0.025976   0.430580   0.001522
     H   12   0.442766   4.368834   0.025903   0.431444   0.029872   0.016072
     H   13   0.452333   0.029464   4.665701   0.445412   0.030910   0.000348
     H   14   0.442544   0.031391   4.709443   0.444844   0.032422   0.000376
     H   15   0.029079   0.453117   0.445998   4.671237   0.001725   0.001016
     H   16   0.030682   0.439811   0.445146   4.703586   0.003910   0.001425
     H   17   0.446179   0.023779   0.019935   0.001588   4.418120   0.000297
     H   18   0.437737   0.045819   0.019475   0.003621   4.410435   0.000459
     H   19   0.000184   0.002500   0.000197   0.000718   0.000223   4.722033
     H   20   0.000883   0.017843   0.000406   0.001840   0.000595   4.704402
     H   21   0.001568   0.018597   0.000329   0.000838   0.000293   4.704610
     H   22   0.033156   0.433461   0.002063   0.032538   0.004391   0.082834
     H   23   0.030062   0.002940   0.002114   0.000591   0.433200   0.001251
     H   24   0.016518   0.082982   0.001723   0.003025   0.005589   0.421984
     H   25   0.017157   0.000800   0.002651   0.000402   0.137324   0.000424
     H   26   0.010091   0.000530   0.002174   0.000843   0.096813   0.000340


                  C  7       C  8       C  9       C 10       H 11       H 12
 ------------------------------------------------------------------------------
     C    7  18.276568
     C    8   0.006051  18.163307
     C    9  10.661451   0.014543  18.164106
     C   10   0.003483  11.074955   0.005799  18.038157
     H   11   0.024853   0.040131   0.013340   0.002261   4.902738
     H   12   0.391301   0.004059   0.024685   0.002594   0.029229   4.853518
     H   13   0.001996   0.002451   0.000899   0.000813   0.030804   0.002522
     H   14   0.002867   0.005919   0.000891   0.001095   0.027352   0.001071
     H   15   0.028086   0.000592   0.003049   0.000403   0.002513   0.031679
     H   16   0.034313   0.000889   0.005547   0.000553   0.001156   0.026874
     H   17   0.001504   0.457746   0.000723   0.047736   0.041086   0.026149
     H   18   0.005857   0.410404   0.000966   0.032766   0.024095   0.003109
     H   19   0.041278   0.000724   0.479705   0.000361   0.000363   0.000484
     H   20   0.034751   0.000280   0.438830   0.000540   0.000420   0.001968
     H   21   0.035740   0.000537   0.437547   0.000455   0.000292   0.002496
     H   22   4.757688   0.001291   0.470769   0.001074   0.002817   0.014496
     H   23   0.001486   4.759986   0.011811   0.453157   0.028365   0.001086
     H   24   0.472456   0.014014   4.723769   0.003717   0.021338   0.009513
     H   25   0.000653   0.462379   0.001400   5.108850   0.000607   0.000518
     H   26   0.000788   0.489821   0.001049   5.072462   0.000614   0.000645


                  H 13       H 14       H 15       H 16       H 17       H 18
 ------------------------------------------------------------------------------
     H   13   5.296252
     H   14   0.554760   5.329301
     H   15   0.032623   0.023519   5.300121
     H   16   0.023401   0.032352   0.554957   5.325144
     H   17   0.015630   0.001151   0.000582   0.000845   5.029060
     H   18   0.011507   0.001978   0.000573   0.000754   0.560438   4.999438
     H   19   0.000082   0.000104   0.000218   0.000100   0.000110   0.000113
     H   20   0.000112   0.000126   0.000196   0.000259   0.000185   0.000195
     H   21   0.000067   0.000104   0.000221   0.000099   0.000090   0.000126
     H   22   0.000599   0.000860   0.029711   0.001989   0.000468   0.000968
     H   23   0.000648   0.000477   0.000296   0.000294   0.038468   0.016369
     H   24   0.000536   0.000491   0.000685   0.000760   0.000749   0.000759
     H   25   0.000222   0.000424   0.000131   0.000117   0.003378   0.018203
     H   26   0.000373   0.000326   0.000149   0.000159   0.028802   0.012158


                  H 19       H 20       H 21       H 22       H 23       H 24
 ------------------------------------------------------------------------------
     H   19   5.448755
     H   20   0.564864   5.424762
     H   21   0.564063   0.575390   5.424198
     H   22   0.029611   0.009215   0.009169   5.133142
     H   23   0.000377   0.000241   0.000194   0.000308   5.136585
     H   24   0.040879   0.023687   0.023444   0.102406   0.017388   5.100781
     H   25   0.000092   0.000118   0.000101   0.000224   0.079918   0.000947
     H   26   0.000105   0.000144   0.000144   0.000246   0.117169   0.000893


                  H 25       H 26
 ------------------------------
     H   25   5.497703
     H   26   0.423466   5.468689


          HEAT OF FORMATION =      17.792193 KCALS/MOLE

          ZERO POINT ENERGY     145.144 KCAL/MOL


           NORMAL COORDINATE ANALYSIS (Total motion = 1 Angstrom)


   Root No.       1         2         3         4         5         6         7         8

                 1 A       2 A       3 A       4 A       5 A       6 A       7 A       8 A   

                  57.0      62.3     119.5     139.2     143.7     171.2     200.1     236.7
  
           1   -0.0059   -0.0115   -0.0081    0.0097   -0.0125   -0.0015   -0.0008   -0.0153
           2    0.0181   -0.0005    0.0105    0.0017    0.0106   -0.0022    0.0028    0.0132
           3   -0.0015    0.0139    0.0037    0.0099   -0.0051    0.0043   -0.0087   -0.0077
           4   -0.0060   -0.0114   -0.0082    0.0098   -0.0132   -0.0011    0.0001   -0.0171
           5    0.0115   -0.0210   -0.0023    0.0128   -0.0030   -0.0012   -0.0022   -0.0078
           6   -0.0017   -0.0118    0.0158   -0.0043    0.0125    0.0076   -0.0072   -0.0102
           7    0.0007    0.0084    0.0051   -0.0006    0.0013   -0.0030    0.0048    0.0011
           8    0.0178   -0.0007    0.0109    0.0018    0.0110   -0.0023    0.0030    0.0121
           9   -0.0167    0.0064   -0.0270   -0.0026   -0.0294    0.0083   -0.0192    0.0303
          10    0.0004    0.0097    0.0047   -0.0004   -0.0002   -0.0020    0.0025    0.0027
          11    0.0112   -0.0202   -0.0017    0.0124   -0.0029   -0.0007   -0.0023   -0.0077
          12    0.0024   -0.0340   -0.0137    0.0009    0.0152   -0.0220    0.0375    0.0012
          13   -0.0077   -0.0360   -0.0036   -0.0008   -0.0049    0.0071   -0.0202    0.0105
          14    0.0012    0.0049   -0.0027   -0.0180    0.0005    0.0046   -0.0002    0.0138
          15    0.0084    0.0243    0.0081    0.0266   -0.0043   -0.0042    0.0040   -0.0222
          16   -0.0193   -0.0015    0.0137   -0.0372    0.0325   -0.0027   -0.0022    0.0071
          17   -0.0327    0.0102   -0.0129   -0.0048   -0.0087   -0.0042    0.0248    0.0155
          18   -0.0404    0.0142   -0.0028   -0.0062   -0.0061    0.0025    0.0228    0.0043
          19   -0.0107   -0.0039   -0.0205    0.0121   -0.0084   -0.0136    0.0012   -0.0220
          20   -0.0021   -0.0106    0.0082    0.0059   -0.0093    0.0141   -0.0158   -0.0189
          21   -0.0070   -0.0100    0.0292   -0.0094    0.0054    0.0243   -0.0163   -0.0157
          22    0.0045    0.0074    0.0170    0.0427    0.0077   -0.0079   -0.0106    0.0412
          23    0.0020    0.0043   -0.0024   -0.0183    0.0010    0.0047    0.0000    0.0142
          24    0.0315   -0.0018    0.0053    0.0167   -0.0018   -0.0032    0.0017    0.0068
          25   -0.0116   -0.0064    0.0120   -0.0071   -0.0119    0.0268    0.0278   -0.0093
          26   -0.0106   -0.0032   -0.0113    0.0090   -0.0018   -0.0127   -0.0263   -0.0196
          27   -0.0316    0.0091   -0.0010   -0.0149    0.0237   -0.0199   -0.0267   -0.0080
          28    0.0546    0.0431   -0.0142   -0.0166    0.0016    0.0002    0.0006   -0.0050
          29   -0.0114    0.0339    0.0054   -0.0008    0.0027    0.0004    0.0066   -0.0152
          30    0.0588   -0.0117   -0.0114   -0.0169   -0.0052    0.0027    0.0006    0.0137
          31   -0.0061   -0.0032   -0.0181    0.0229   -0.0265   -0.0047    0.0047   -0.0247
          32    0.0308    0.0062    0.0291    0.0090    0.0281   -0.0085    0.0113    0.0015
          33    0.0045    0.0207    0.0074    0.0197   -0.0036   -0.0005   -0.0020   -0.0172
          34   -0.0088   -0.0320   -0.0063    0.0051   -0.0117    0.0031   -0.0018   -0.0229
          35    0.0145   -0.0420   -0.0219    0.0198   -0.0021   -0.0191    0.0220   -0.0079
          36   -0.0045   -0.0121    0.0250   -0.0093    0.0123    0.0175   -0.0181   -0.0130
          37    0.0147   -0.0099    0.0172   -0.0008    0.0335   -0.0233    0.0439   -0.0139
          38    0.0099    0.0015   -0.0034   -0.0091   -0.0007    0.0013   -0.0048    0.0422
          39   -0.0275    0.0164   -0.0402   -0.0081   -0.0513    0.0201   -0.0425    0.0537
          40   -0.0088    0.0380    0.0014   -0.0064   -0.0213    0.0156   -0.0297    0.0265
          41    0.0293    0.0091    0.0328    0.0062    0.0312   -0.0069    0.0146   -0.0076
          42   -0.0281    0.0178   -0.0407   -0.0082   -0.0530    0.0213   -0.0449    0.0554
          43   -0.0097    0.0398    0.0005   -0.0060   -0.0244    0.0177   -0.0348    0.0276
          44    0.0058   -0.0118    0.0125    0.0111   -0.0105    0.0203   -0.0333   -0.0181
          45    0.0098   -0.0524   -0.0186    0.0042    0.0304   -0.0416    0.0707   -0.0057
          46    0.0138   -0.0070    0.0164   -0.0013    0.0310   -0.0214    0.0398   -0.0093
          47    0.0122   -0.0397   -0.0225    0.0193   -0.0042   -0.0193    0.0255   -0.0093
          48    0.0107   -0.0546   -0.0189    0.0044    0.0324   -0.0439    0.0750   -0.0066
          49   -0.0128   -0.0745   -0.0130   -0.0358   -0.0063    0.0223   -0.0406    0.0227
          50   -0.0083    0.0339    0.0040   -0.0004    0.0022   -0.0001    0.0037    0.0119
          51    0.0020    0.0155    0.0057    0.0153   -0.0045    0.0019   -0.0051   -0.0161
          52   -0.0097   -0.0462   -0.0089   -0.0127   -0.0077    0.0111   -0.0232    0.0068
          53   -0.0059   -0.0209   -0.0182   -0.0503   -0.0085    0.0150   -0.0056   -0.0035
          54    0.0075    0.0638    0.0125    0.0549   -0.0072   -0.0176    0.0260   -0.0456
          55   -0.0204    0.0018   -0.0415    0.0035    0.1167    0.0631   -0.0207   -0.0021
          56   -0.0425    0.0146    0.0202   -0.0423   -0.0515   -0.0475    0.0497    0.0399
          57   -0.0251    0.0022    0.0501   -0.0277   -0.0971   -0.0553    0.0223   -0.0121
          58   -0.0240    0.0022    0.0014   -0.0465    0.0818   -0.0071   -0.0297    0.0144
          59   -0.0458    0.0217   -0.0924    0.0600    0.0763    0.1138    0.0615    0.0215
          60   -0.0486    0.0210   -0.0380    0.0050    0.0641    0.0343    0.0092    0.0127
          61   -0.0195   -0.0049    0.0866   -0.0983   -0.0662   -0.0967    0.0131    0.0234
          62   -0.0276    0.0052    0.0298   -0.0411   -0.0553   -0.0669    0.0107    0.0162
          63   -0.0555    0.0241   -0.0257    0.0144   -0.0080    0.0543    0.0858    0.0251
          64   -0.0161    0.0032   -0.0538    0.0171    0.0162   -0.0640   -0.0239   -0.0237
          65   -0.0075   -0.0088    0.0289   -0.0035   -0.0212    0.0443    0.0000   -0.0167
          66    0.0081   -0.0239    0.0608   -0.0077   -0.0213    0.0728    0.0088   -0.0140
          67   -0.0296    0.0119    0.0572    0.1193    0.0224   -0.0251   -0.0096    0.1016
          68    0.0144   -0.0212   -0.0089   -0.0346   -0.0001    0.0085   -0.0041    0.0326
          69    0.0263   -0.0123    0.0153    0.0340    0.0025   -0.0071    0.0000    0.0358
          70   -0.0075   -0.0125    0.0420   -0.0106   -0.0401    0.0736    0.0636   -0.0014
          71   -0.0020   -0.0062   -0.0288    0.0217    0.0081   -0.0369   -0.0571   -0.0386
          72   -0.0488    0.0230   -0.0305   -0.0243    0.0599   -0.0699   -0.0496    0.0024
          73    0.0665    0.0771   -0.0020    0.0090    0.0104   -0.0101    0.0107    0.0157
          74   -0.0107    0.0327    0.0051   -0.0014    0.0027    0.0005    0.0064   -0.0136
          75    0.0778   -0.0316   -0.0162   -0.0282   -0.0043    0.0041   -0.0034    0.0552
          76    0.0881    0.0411   -0.0546   -0.0956   -0.0127    0.0179    0.0010   -0.0685
          77   -0.0243    0.0615    0.0130    0.0161    0.0044   -0.0037    0.0132   -0.0452
          78    0.0646   -0.0010   -0.0217   -0.0362   -0.0093    0.0069    0.0034   -0.0195


   Root No.       9        10        11        12        13        14        15        16

                 9 A      10 A      11 A      12 A      13 A      14 A      15 A      16 A   

                 337.2     358.3     410.2     445.3     472.6     572.1     620.2     767.9
  
           1   -0.0189    0.0000    0.0292    0.0149   -0.0079   -0.0062    0.0026    0.0197
           2    0.0037    0.0059   -0.0222    0.0168    0.0152   -0.0021   -0.0023    0.0305
           3    0.0220    0.0278   -0.0144   -0.0089   -0.0353   -0.0093    0.0235   -0.0145
           4   -0.0168   -0.0055    0.0260    0.0130   -0.0066    0.0028    0.0002    0.0211
           5   -0.0051    0.0060    0.0019    0.0288    0.0041    0.0073    0.0064   -0.0290
           6    0.0127    0.0051   -0.0109    0.0066   -0.0146    0.0455   -0.0223   -0.0114
           7   -0.0233    0.0022   -0.0178   -0.0088    0.0025    0.0054    0.0048   -0.0308
           8    0.0018    0.0089   -0.0319    0.0200    0.0181   -0.0001    0.0027    0.0381
           9   -0.0191   -0.0014   -0.0162    0.0015    0.0120    0.0008    0.0018   -0.0058
          10   -0.0234    0.0035   -0.0178   -0.0075    0.0030    0.0052    0.0046   -0.0311
          11   -0.0029    0.0059    0.0069    0.0401    0.0062    0.0041    0.0100   -0.0341
          12   -0.0156   -0.0057   -0.0107   -0.0177    0.0019   -0.0001   -0.0018   -0.0062
          13    0.0227    0.0399    0.0060   -0.0092    0.0018   -0.0141    0.0053    0.0174
          14    0.0130   -0.0180    0.0126   -0.0017   -0.0259   -0.0067    0.0001    0.0008
          15   -0.0034    0.0229   -0.0071    0.0086   -0.0172   -0.0158    0.0132    0.0184
          16   -0.0087    0.0044    0.0065    0.0090    0.0026   -0.0036    0.0023   -0.0029
          17   -0.0181    0.0270    0.0010   -0.0175   -0.0193    0.0167   -0.0089    0.0044
          18    0.0190   -0.0115    0.0020    0.0233    0.0148   -0.0125    0.0080   -0.0035
          19    0.0368   -0.0185   -0.0156   -0.0046   -0.0059    0.0280   -0.0177    0.0233
          20   -0.0158   -0.0170   -0.0148   -0.0298    0.0025   -0.0081    0.0020   -0.0042
          21   -0.0208   -0.0099    0.0055   -0.0063   -0.0076    0.0162   -0.0124    0.0169
          22    0.0090   -0.0056    0.0037   -0.0030   -0.0124   -0.0217   -0.0291   -0.0087
          23    0.0162   -0.0199    0.0204   -0.0052   -0.0290   -0.0097   -0.0047   -0.0027
          24    0.0062    0.0109    0.0294   -0.0181    0.0354    0.0002   -0.0171   -0.0055
          25    0.0296   -0.0278   -0.0194    0.0009    0.0178   -0.0090    0.0029   -0.0082
          26   -0.0068   -0.0177   -0.0162   -0.0299    0.0029   -0.0096    0.0030   -0.0022
          27    0.0016   -0.0186    0.0043    0.0108    0.0143   -0.0188    0.0096   -0.0005
          28   -0.0014   -0.0004   -0.0029    0.0009    0.0003    0.0037    0.0063    0.0006
          29    0.0137    0.0104    0.0379   -0.0201    0.0248    0.0015   -0.0081   -0.0037
          30    0.0053   -0.0114    0.0172   -0.0070   -0.0011   -0.0002   -0.0050   -0.0036
          31   -0.0338   -0.0029    0.0478    0.0272   -0.0139   -0.0336    0.0240    0.0334
          32    0.0127    0.0181   -0.0405    0.0144    0.0138    0.0021    0.0001    0.0586
          33    0.0174    0.0311   -0.0130   -0.0035   -0.0378   -0.0201    0.0333    0.0053
          34   -0.0408   -0.0151    0.0550    0.0257    0.0029    0.0139   -0.0115    0.0337
          35   -0.0076    0.0044    0.0164    0.0475    0.0114    0.0012    0.0156   -0.0601
          36    0.0009    0.0005   -0.0029    0.0041   -0.0132    0.0520   -0.0312    0.0087
          37   -0.0198    0.0017   -0.0277   -0.0341   -0.0081    0.0005    0.0091   -0.0608
          38   -0.0252   -0.0099   -0.0487    0.0249    0.0618    0.0151   -0.0245    0.0913
          39   -0.0355   -0.0108   -0.0210    0.0166    0.0412    0.0117   -0.0150    0.0375
          40   -0.0274    0.0056   -0.0395   -0.0005    0.0200    0.0134    0.0007   -0.0015
          41    0.0304    0.0287   -0.0435    0.0010   -0.0193   -0.0129    0.0287    0.0050
          42   -0.0369   -0.0103   -0.0224    0.0169    0.0428    0.0126   -0.0152    0.0317
          43   -0.0264    0.0088   -0.0344    0.0069    0.0152    0.0193    0.0007   -0.0605
          44    0.0139    0.0111    0.0198    0.0712   -0.0062    0.0514   -0.0115   -0.0806
          45   -0.0228   -0.0109   -0.0097   -0.0412    0.0022   -0.0308    0.0110    0.0315
          46   -0.0217    0.0027   -0.0315   -0.0357   -0.0012   -0.0050    0.0065   -0.0033
          47   -0.0202   -0.0039    0.0197    0.0230    0.0123   -0.0423    0.0346   -0.0083
          48   -0.0246   -0.0118   -0.0111   -0.0445    0.0028   -0.0338    0.0136    0.0276
          49    0.0717    0.0913    0.0023   -0.0547    0.0288    0.0034    0.0735   -0.0016
          50    0.0038   -0.0373    0.0004    0.0151   -0.0735   -0.0287   -0.0220   -0.0033
          51    0.0174    0.0404   -0.0143   -0.0073   -0.0231   -0.0153    0.0384    0.0072
          52    0.0300    0.0498    0.0116   -0.0184    0.0086   -0.0049    0.0291    0.0197
          53    0.0260    0.0029    0.0319   -0.0197   -0.0144    0.0182    0.0611    0.0141
          54   -0.0575   -0.0341    0.0047    0.0584   -0.0620   -0.0306   -0.0392    0.0507
          55   -0.0195   -0.0052    0.0075    0.0030    0.0071   -0.0168    0.0092   -0.0009
          56   -0.0276    0.0632    0.0162   -0.0063   -0.0401    0.0460   -0.0237    0.0187
          57    0.0499   -0.0418   -0.0195    0.0190    0.0334   -0.0265    0.0146   -0.0247
          58   -0.0420    0.0251    0.0278    0.0101   -0.0108   -0.0024    0.0031    0.0196
          59   -0.0112    0.0314   -0.0027   -0.0137   -0.0218    0.0304   -0.0171   -0.0016
          60   -0.0086    0.0083    0.0199    0.0258    0.0024   -0.0076    0.0065    0.0142
          61   -0.0086    0.0278    0.0150    0.0180   -0.0106    0.0168   -0.0078    0.0062
          62   -0.0236    0.0312    0.0052   -0.0187   -0.0227    0.0168   -0.0088    0.0111
          63    0.0352    0.0098    0.0016    0.0391    0.0053    0.0180   -0.0080   -0.0102
          64    0.0683   -0.0138   -0.0261    0.0110   -0.0086    0.0654   -0.0386    0.0030
          65   -0.0257   -0.0308   -0.0190   -0.0488    0.0147   -0.0466    0.0199    0.0002
          66   -0.0633   -0.0006    0.0289   -0.0090   -0.0168   -0.0017    0.0020    0.0457
          67    0.0103   -0.0593    0.0381   -0.0218   -0.0085    0.0279    0.0308   -0.0175
          68    0.0227   -0.0335    0.0265   -0.0085   -0.0351   -0.0097   -0.0134   -0.0103
          69    0.0096   -0.0139    0.0428   -0.0251    0.0316    0.0157   -0.0018   -0.0120
          70    0.0077   -0.0261   -0.0112   -0.0068    0.0181   -0.0308    0.0158    0.0027
          71    0.0108   -0.0289   -0.0305   -0.0382   -0.0010    0.0162   -0.0158    0.0069
          72    0.0162   -0.0062    0.0085    0.0340    0.0169   -0.0103    0.0091   -0.0280
          73   -0.0092   -0.0519    0.0376   -0.0242    0.0292    0.1271    0.1785    0.0507
          74    0.0139    0.0084    0.0378   -0.0198    0.0222    0.0016   -0.0069   -0.0035
          75    0.0058   -0.0705    0.0055    0.0079   -0.0805    0.0172    0.0608    0.0189
          76   -0.0036    0.0557   -0.0482    0.0287   -0.0113   -0.0817   -0.1106   -0.0281
          77    0.0116    0.0457    0.0621   -0.0414    0.1011    0.0208   -0.0185   -0.0112
          78    0.0037    0.0213    0.0117   -0.0062    0.0250   -0.0212   -0.0482   -0.0162


   Root No.      17        18        19        20        21        22        23        24

                17 A      18 A      19 A      20 A      21 A      22 A      23 A      24 A   

                 840.1     844.9     878.9     907.9     923.0     935.8     958.8     974.8
  
           1    0.0054    0.0187    0.0003    0.0058    0.0060    0.0115    0.0011   -0.0022
           2   -0.0072   -0.0003    0.0043   -0.0008   -0.0006   -0.0031   -0.0010   -0.0013
           3   -0.0006   -0.0089   -0.0031   -0.0126    0.0026    0.0045   -0.0014    0.0036
           4   -0.0158   -0.0167    0.0127   -0.0072   -0.0014   -0.0062   -0.0089    0.0085
           5    0.0042   -0.0050   -0.0016   -0.0003    0.0002   -0.0019   -0.0027    0.0043
           6    0.0082    0.0038   -0.0105    0.0078   -0.0027    0.0071   -0.0023    0.0059
           7    0.0048   -0.0050   -0.0030   -0.0004   -0.0022   -0.0020    0.0021   -0.0031
           8   -0.0100    0.0069    0.0034   -0.0042    0.0066    0.0059    0.0010    0.0085
           9   -0.0178    0.0077    0.0059   -0.0122    0.0074   -0.0030    0.0083    0.0092
          10    0.0067   -0.0026   -0.0035    0.0008   -0.0006   -0.0023    0.0020   -0.0022
          11    0.0073   -0.0096   -0.0062   -0.0055    0.0014   -0.0024    0.0106   -0.0054
          12   -0.0135    0.0143   -0.0006    0.0121   -0.0081    0.0022   -0.0059   -0.0074
          13    0.0132    0.0277   -0.0211   -0.0045   -0.0047    0.0027    0.0153    0.0032
          14   -0.0015   -0.0012    0.0013   -0.0069    0.0059    0.0134   -0.0145   -0.0102
          15    0.0057    0.0007    0.0085    0.0200   -0.0052   -0.0047   -0.0058   -0.0102
          16    0.0053    0.0038    0.0090   -0.0026   -0.0022   -0.0001   -0.0047    0.0072
          17   -0.0028    0.0004   -0.0060    0.0068   -0.0015    0.0067   -0.0117    0.0228
          18   -0.0050   -0.0057   -0.0090    0.0013    0.0027   -0.0025    0.0027   -0.0039
          19   -0.0189   -0.0212   -0.0119   -0.0077   -0.0178    0.0005    0.0090   -0.0030
          20    0.0077    0.0070    0.0087   -0.0014    0.0119   -0.0052    0.0034   -0.0091
          21    0.0044   -0.0031    0.0160   -0.0093    0.0195   -0.0096    0.0043   -0.0002
          22   -0.0013   -0.0043    0.0011   -0.0033   -0.0037   -0.0205   -0.0150   -0.0045
          23    0.0035    0.0003   -0.0006    0.0048   -0.0036   -0.0059    0.0016    0.0006
          24   -0.0011   -0.0001   -0.0009   -0.0015   -0.0014   -0.0085    0.0002    0.0022
          25    0.0088    0.0100    0.0076    0.0008   -0.0084    0.0034   -0.0022    0.0017
          26   -0.0027    0.0022   -0.0058    0.0050    0.0031    0.0005   -0.0012   -0.0027
          27   -0.0061   -0.0032   -0.0086    0.0043    0.0064   -0.0002   -0.0021    0.0013
          28   -0.0009   -0.0020    0.0026    0.0023   -0.0004   -0.0069   -0.0071   -0.0032
          29    0.0030    0.0003    0.0014    0.0154   -0.0089   -0.0207    0.0200    0.0129
          30    0.0010    0.0021   -0.0040   -0.0067    0.0016    0.0031   -0.0072   -0.0036
          31   -0.0121    0.0154    0.0305    0.0103    0.0332    0.0113   -0.0259    0.0011
          32    0.0005   -0.0123    0.0067    0.0186   -0.0262   -0.0039   -0.0067   -0.0250
          33   -0.0037   -0.0146    0.0117    0.0001    0.0029    0.0044   -0.0165   -0.0071
          34   -0.0175   -0.0013    0.0535    0.0178    0.0159   -0.0152   -0.0535    0.0300
          35   -0.0183   -0.0108   -0.0119    0.0232   -0.0336    0.0015   -0.0332    0.0013
          36    0.0168    0.0121    0.0141    0.0079    0.0208    0.0006   -0.0095    0.0177
          37   -0.0881    0.0563    0.0233    0.0020    0.0007   -0.0190    0.0107   -0.0238
          38    0.0274   -0.0023   -0.0053    0.0563   -0.0296    0.0063   -0.0297   -0.0480
          39    0.0513   -0.0287   -0.0129    0.0198   -0.0139    0.0061   -0.0127   -0.0107
          40    0.0822   -0.0678   -0.0244   -0.0114   -0.0036    0.0100   -0.0118    0.0358
          41   -0.0664    0.0093    0.0203   -0.0762    0.0441    0.0025    0.0230    0.0850
          42    0.0594   -0.0318   -0.0160    0.0211   -0.0146    0.0061   -0.0123   -0.0102
          43   -0.0816    0.0645    0.0188    0.0094    0.0039   -0.0186    0.0159   -0.0124
          44   -0.0244    0.0188   -0.0261    0.0482   -0.0471    0.0181   -0.0310   -0.0317
          45    0.0475   -0.0348   -0.0019   -0.0199    0.0140   -0.0001    0.0084    0.0116
          46    0.0952   -0.0471   -0.0310    0.0047   -0.0011    0.0243   -0.0159    0.0118
          47    0.0317   -0.0620    0.0168   -0.0710    0.0392   -0.0361    0.0572    0.0143
          48    0.0550   -0.0433   -0.0035   -0.0245    0.0146   -0.0015    0.0113    0.0128
          49   -0.0148   -0.0514    0.0531    0.0396   -0.0004   -0.0119   -0.0359   -0.0227
          50    0.0132    0.0211   -0.0353   -0.0471    0.0026    0.0186   -0.0348   -0.0162
          51   -0.0023   -0.0299    0.0309    0.0260   -0.0045   -0.0103   -0.0397   -0.0252
          52    0.0103    0.0175   -0.0038    0.0136    0.0014    0.0201    0.0068   -0.0119
          53   -0.0015   -0.0123    0.0374    0.0416    0.0240    0.0762   -0.0316   -0.0557
          54    0.0466    0.0991   -0.0704   -0.0106   -0.0048    0.0415    0.0419   -0.0038
          55   -0.0133   -0.0075   -0.0232    0.0135    0.0026    0.0072   -0.0169    0.0324
          56    0.0019   -0.0086    0.0160   -0.0224    0.0047   -0.0193    0.0427   -0.0750
          57    0.0206    0.0245    0.0185    0.0101   -0.0134    0.0176   -0.0450    0.0772
          58   -0.0404   -0.0407   -0.0526    0.0027    0.0193   -0.0158    0.0355   -0.0561
          59    0.0294    0.0237    0.0477   -0.0143   -0.0112    0.0012   -0.0069    0.0087
          60   -0.0352   -0.0380   -0.0467   -0.0008    0.0187   -0.0183    0.0403   -0.0652
          61    0.0085   -0.0033    0.0246   -0.0241    0.0020   -0.0193    0.0341   -0.0616
          62   -0.0178   -0.0125   -0.0281    0.0123    0.0040    0.0057   -0.0058    0.0156
          63    0.0459    0.0236    0.0816   -0.0467   -0.0085   -0.0267    0.0402   -0.0801
          64    0.0361    0.0179    0.0313    0.0099    0.1586   -0.0436   -0.0035    0.0032
          65   -0.0184    0.0004   -0.0229   -0.0008   -0.0928    0.0241    0.0182   -0.0455
          66   -0.0580   -0.0618   -0.0190   -0.0401   -0.1539    0.0296    0.0081    0.0320
          67   -0.0159   -0.0411    0.0549    0.0553    0.0441    0.1901    0.0835    0.0076
          68    0.0045    0.0100   -0.0218   -0.0338    0.0050    0.0157   -0.0187   -0.0064
          69   -0.0052   -0.0075    0.0067    0.0000    0.0180    0.0697    0.0233    0.0031
          70   -0.0376   -0.0229   -0.0770    0.0482    0.1246   -0.0179   -0.0125    0.0092
          71    0.0192    0.0130    0.0442   -0.0330   -0.0729   -0.0030    0.0263   -0.0474
          72    0.0449    0.0378    0.0742   -0.0309   -0.1260    0.0393   -0.0153    0.0392
          73    0.0151    0.0448   -0.0398   -0.0401    0.0010    0.0226    0.0068    0.0020
          74    0.0037    0.0005    0.0017    0.0183   -0.0107   -0.0246    0.0238    0.0153
          75    0.0179    0.0061    0.0106    0.0797   -0.0441   -0.0949    0.0933    0.0561
          76   -0.0133   -0.0331    0.0376    0.0410    0.0212    0.1126    0.0823    0.0243
          77   -0.0044    0.0129   -0.0276   -0.0720    0.0277    0.0670   -0.0572   -0.0324
          78   -0.0059   -0.0032   -0.0039   -0.0280    0.0230    0.0771   -0.0074   -0.0120


   Root No.      25        26        27        28        29        30        31        32

                25 A      26 A      27 A      28 A      29 A      30 A      31 A      32 A   

                 996.2     997.5    1028.4    1037.5    1042.4    1059.3    1063.5    1095.1
  
           1    0.0143   -0.0118   -0.0022    0.0075    0.0138   -0.0121    0.0013    0.0182
           2   -0.0131   -0.0057   -0.0021    0.0187   -0.0122   -0.0080   -0.0324   -0.0093
           3    0.0001    0.0060    0.0039   -0.0034   -0.0029   -0.0032    0.0063   -0.0045
           4   -0.0113    0.0120    0.0038   -0.0024   -0.0089   -0.0025   -0.0158   -0.0208
           5    0.0051    0.0140   -0.0074    0.0108   -0.0270    0.0192    0.0136   -0.0082
           6    0.0062   -0.0053   -0.0026    0.0032    0.0003    0.0053    0.0067    0.0109
           7   -0.0042   -0.0024    0.0079   -0.0309    0.0246   -0.0003    0.0000   -0.0003
           8    0.0199    0.0041    0.0010   -0.0044    0.0116   -0.0032    0.0258    0.0086
           9    0.0071   -0.0042   -0.0018    0.0048    0.0046   -0.0070   -0.0074   -0.0283
          10   -0.0034   -0.0037   -0.0080    0.0311   -0.0232   -0.0017   -0.0044    0.0015
          11   -0.0070   -0.0225    0.0038   -0.0008    0.0204   -0.0162    0.0017    0.0069
          12   -0.0006    0.0066    0.0040   -0.0007    0.0029   -0.0076   -0.0177    0.0238
          13   -0.0084    0.0066    0.0044   -0.0093   -0.0136   -0.0006   -0.0016   -0.0074
          14    0.0005   -0.0064   -0.0020    0.0042    0.0047    0.0094   -0.0066   -0.0054
          15   -0.0074   -0.0031   -0.0040    0.0001    0.0004    0.0055   -0.0029    0.0004
          16   -0.0052    0.0011    0.0231    0.0065   -0.0004    0.0043    0.0027   -0.0021
          17   -0.0069   -0.0126   -0.0091   -0.0033    0.0023   -0.0017    0.0001    0.0004
          18    0.0025    0.0006   -0.0213   -0.0041   -0.0063    0.0026   -0.0005   -0.0051
          19    0.0005   -0.0057    0.0128    0.0063    0.0024    0.0029    0.0103    0.0046
          20    0.0020    0.0066   -0.0083   -0.0024   -0.0051    0.0010   -0.0014   -0.0050
          21   -0.0062   -0.0038   -0.0054   -0.0038   -0.0003   -0.0013    0.0013   -0.0029
          22    0.0019   -0.0020   -0.0082    0.0122    0.0260    0.0190   -0.0019    0.0022
          23   -0.0043    0.0047   -0.0013   -0.0012   -0.0018   -0.0048    0.0033    0.0054
          24    0.0046   -0.0024   -0.0012    0.0042    0.0096    0.0093   -0.0019   -0.0039
          25    0.0022   -0.0034   -0.0303   -0.0091   -0.0009   -0.0046   -0.0061    0.0007
          26    0.0012    0.0055    0.0162    0.0050   -0.0003    0.0024    0.0000    0.0016
          27   -0.0018    0.0020    0.0286    0.0069    0.0059   -0.0003    0.0007    0.0064
          28    0.0156   -0.0162    0.0124   -0.0151   -0.0286   -0.0143    0.0005   -0.0011
          29    0.0040    0.0031    0.0024   -0.0024   -0.0017   -0.0034    0.0034   -0.0004
          30    0.0014   -0.0017    0.0030   -0.0065   -0.0106   -0.0069    0.0038    0.0013
          31    0.0565    0.0157   -0.0308    0.0617    0.0321   -0.0672    0.1082    0.0695
          32   -0.0800   -0.0065    0.0154   -0.0314   -0.0321   -0.0222   -0.1238    0.0145
          33   -0.0121    0.0176   -0.0017   -0.0012   -0.0039   -0.0355    0.0139    0.0308
          34    0.0037    0.0777   -0.0407   -0.0704   -0.0072    0.0234   -0.0323    0.0029
          35    0.0260    0.1076    0.0191   -0.0471   -0.0612    0.0981    0.0009    0.0049
          36    0.0029   -0.0164   -0.0355   -0.0043    0.0167   -0.0174    0.0045    0.0169
          37   -0.0346   -0.0174    0.0059   -0.0634    0.0368    0.0151    0.1109   -0.1340
          38   -0.0401    0.0102    0.0111   -0.0569    0.0126    0.0217    0.1507   -0.0390
          39   -0.0089    0.0074    0.0044   -0.0066   -0.0013   -0.0016    0.0048    0.0131
          40    0.0458    0.0557    0.0234   -0.0831    0.0383    0.0273   -0.0571    0.0958
          41    0.0961    0.0405    0.0075   -0.0344    0.0377    0.0056   -0.0560    0.0217
          42   -0.0064    0.0097    0.0043   -0.0096   -0.0010    0.0028    0.0021    0.0192
          43   -0.0306   -0.0155   -0.0216    0.0353   -0.0852    0.0589    0.0255    0.1550
          44    0.0121    0.0256    0.0365   -0.0153    0.0869   -0.0928   -0.0751   -0.0750
          45    0.0039   -0.0111   -0.0058    0.0039    0.0001    0.0015    0.0064   -0.0099
          46    0.0659    0.0320   -0.0197    0.0915   -0.0194   -0.0374    0.0250   -0.1122
          47   -0.0687   -0.0882   -0.0016   -0.0532    0.0075    0.0416    0.0290    0.0572
          48    0.0044   -0.0122   -0.0065    0.0054   -0.0018    0.0038    0.0138   -0.0126
          49   -0.0109    0.0021   -0.0167    0.0067    0.0157   -0.0149    0.0227    0.0231
          50   -0.0514    0.0492   -0.0109   -0.0244   -0.0159   -0.0384    0.0524    0.0102
          51   -0.0296    0.0174   -0.0184   -0.0040    0.0065   -0.0209    0.0334    0.0218
          52    0.0142   -0.0229    0.0079   -0.0080   -0.0020    0.0382   -0.0132   -0.0136
          53    0.0735   -0.1017    0.0145    0.0009    0.0331    0.1459   -0.0505   -0.0344
          54    0.0120   -0.0218    0.0226   -0.0371   -0.0324    0.0708   -0.0280   -0.0383
          55   -0.0096   -0.0155   -0.0217   -0.0045   -0.0052    0.0041    0.0019   -0.0074
          56    0.0244    0.0281    0.0055    0.0000    0.0060   -0.0088   -0.0067    0.0125
          57   -0.0300   -0.0224    0.0374    0.0111   -0.0040    0.0133    0.0104   -0.0127
          58    0.0259    0.0117   -0.0910   -0.0202   -0.0155   -0.0013   -0.0065   -0.0074
          59   -0.0105    0.0050    0.0801    0.0185    0.0121    0.0009    0.0046    0.0085
          60    0.0293    0.0161   -0.0954   -0.0210   -0.0173   -0.0012   -0.0072   -0.0079
          61    0.0166    0.0312    0.0316    0.0099   -0.0031    0.0038    0.0008    0.0009
          62   -0.0010   -0.0164   -0.0492   -0.0137    0.0001   -0.0055   -0.0035    0.0007
          63    0.0154    0.0542    0.1129    0.0319   -0.0018    0.0122    0.0070   -0.0001
          64   -0.0203    0.0054   -0.0217   -0.0116   -0.0144    0.0032   -0.0029   -0.0221
          65    0.0326    0.0058    0.0071   -0.0043    0.0411   -0.0301   -0.0218    0.0348
          66   -0.0074   -0.0205    0.0342    0.0289   -0.0286    0.0363    0.0480   -0.0047
          67   -0.0069    0.0070    0.0226   -0.0373   -0.0722   -0.0427    0.0088   -0.0063
          68   -0.0265    0.0258   -0.0020   -0.0097   -0.0142   -0.0388    0.0160    0.0358
          69   -0.0087    0.0108    0.0084   -0.0161   -0.0284   -0.0270    0.0080    0.0076
          70   -0.0114    0.0090    0.0747    0.0179    0.0073    0.0048    0.0028    0.0079
          71    0.0172    0.0096   -0.0477   -0.0130   -0.0034   -0.0001   -0.0204    0.0010
          72    0.0023   -0.0223   -0.0717   -0.0172   -0.0055   -0.0128    0.0093   -0.0050
          73   -0.0734    0.0654   -0.0503    0.0617    0.1082    0.0541   -0.0106    0.0023
          74    0.0038    0.0046    0.0023   -0.0025   -0.0011   -0.0041    0.0044   -0.0001
          75   -0.0039    0.0290   -0.0074    0.0118    0.0320    0.0084    0.0092   -0.0036
          76   -0.0560    0.0611   -0.0387    0.0499    0.0922    0.0477   -0.0055   -0.0006
          77   -0.0237    0.0115   -0.0075   -0.0019   -0.0030   -0.0094    0.0096    0.0129
          78   -0.0337    0.0279   -0.0180    0.0151    0.0290    0.0110    0.0050    0.0070


   Root No.      33        34        35        36        37        38        39        40

                33 A      34 A      35 A      36 A      37 A      38 A      39 A      40 A   

                1105.2    1149.8    1156.6    1170.4    1181.7    1191.0    1202.8    1209.5
  
           1   -0.0040    0.0134    0.0148    0.0098   -0.0066    0.0018    0.0377   -0.0165
           2    0.0031   -0.0088   -0.0042   -0.0180   -0.0298   -0.0150   -0.0126    0.0069
           3   -0.0121    0.0164   -0.0126   -0.0049    0.0332   -0.0178   -0.0053   -0.0219
           4   -0.0101   -0.0072   -0.0204   -0.0094    0.0188    0.0013   -0.0005   -0.0164
           5    0.0018    0.0001   -0.0297   -0.0022   -0.0156    0.0010    0.0183   -0.0052
           6    0.0192    0.0098   -0.0027   -0.0076   -0.0212   -0.0104    0.0149   -0.0061
           7   -0.0020    0.0014    0.0033    0.0026   -0.0146   -0.0012    0.0115    0.0002
           8   -0.0032    0.0020    0.0120    0.0099    0.0276    0.0092    0.0014   -0.0117
           9    0.0131    0.0121    0.0122    0.0030   -0.0131    0.0042    0.0094    0.0080
          10    0.0059   -0.0034    0.0017   -0.0058    0.0107   -0.0039   -0.0202    0.0036
          11    0.0035   -0.0018    0.0146    0.0111    0.0228    0.0090   -0.0103    0.0064
          12   -0.0172   -0.0158   -0.0157    0.0047    0.0130    0.0050   -0.0059   -0.0006
          13    0.0022   -0.0115   -0.0003   -0.0034   -0.0030   -0.0045   -0.0086    0.0027
          14    0.0035   -0.0204    0.0042   -0.0060    0.0024   -0.0198    0.0099   -0.0040
          15    0.0121   -0.0147    0.0106    0.0034   -0.0248    0.0274   -0.0090   -0.0077
          16   -0.0024   -0.0012   -0.0014    0.0261   -0.0055   -0.0066   -0.0033   -0.0017
          17   -0.0052    0.0005    0.0081    0.0013    0.0000   -0.0040   -0.0059   -0.0002
          18   -0.0069   -0.0020   -0.0059    0.0266   -0.0056   -0.0046   -0.0001   -0.0017
          19    0.0027   -0.0020    0.0084   -0.0032   -0.0030    0.0042   -0.0058    0.0092
          20   -0.0111   -0.0034   -0.0084    0.0012    0.0007    0.0092    0.0100    0.0024
          21   -0.0305   -0.0031    0.0249   -0.0085    0.0033   -0.0003   -0.0146    0.0052
          22   -0.0033    0.0091   -0.0021    0.0011    0.0017    0.0059   -0.0009   -0.0026
          23    0.0009    0.0068    0.0015    0.0024   -0.0152    0.0171   -0.0090   -0.0289
          24   -0.0020   -0.0051   -0.0015   -0.0025    0.0126   -0.0152    0.0079    0.0154
          25   -0.0013    0.0015    0.0039   -0.0216    0.0067    0.0027   -0.0005   -0.0004
          26    0.0093   -0.0003   -0.0108    0.0016   -0.0010    0.0063    0.0105    0.0014
          27    0.0131    0.0040    0.0080   -0.0231    0.0047   -0.0012   -0.0049   -0.0006
          28    0.0011   -0.0005   -0.0001   -0.0002   -0.0004   -0.0005   -0.0010    0.0049
          29   -0.0020    0.0017   -0.0015    0.0005    0.0059   -0.0032    0.0016    0.0068
          30    0.0026   -0.0074    0.0034    0.0006   -0.0046    0.0013    0.0008   -0.0159
          31   -0.0489    0.0312   -0.0583   -0.0484   -0.1010   -0.1079   -0.0653    0.0891
          32   -0.0136    0.1611    0.0027    0.0328    0.0211   -0.0343    0.1303    0.0393
          33   -0.0397    0.1059   -0.0437   -0.0081    0.0125   -0.0784    0.0114    0.0429
          34    0.1974    0.0397    0.0076    0.0292    0.0713   -0.0198   -0.0718    0.0190
          35   -0.0581    0.0571    0.1875   -0.0512   -0.0463   -0.0391   -0.0183    0.0129
          36    0.1454    0.0073   -0.0866    0.0317    0.0174   -0.0040   -0.0044    0.0033
          37    0.0203    0.0324   -0.0272   -0.0192   -0.0650   -0.0130    0.0092    0.0049
[...]
 EFF. MASS   2.3562

 VIBRATION   52   52A       ATOM PAIR        ENERGY CONTRIBUTION    RADIAL
 FREQ.      1416.24        C  1 --  C  5          +16.0% ( 55.0%)    76.0%
 T-DIPOLE    0.0223        C  5 --  C  8          +10.6% ( 44.8%)    87.1%
 TRAVEL      0.0890        C  5 --  H 17          +10.1% ( 43.7%)     0.2%
 RED. MASS   0.8871        C  5 --  H 18           +8.9% ( 41.1%)     0.0%
 EFF. MASS   6.0062

 VIBRATION   53   53A       ATOM PAIR        ENERGY CONTRIBUTION    RADIAL
 FREQ.      1431.45        C  6 --  C  9          +13.8% ( 50.6%)    99.5%
 T-DIPOLE    0.0327        C  6 --  H 19          +13.7% ( 50.3%)     5.4%
 TRAVEL      0.0879        C  6 --  H 20          +11.2% ( 45.5%)     3.0%
 RED. MASS   0.7354        C  6 --  H 21          +11.0% ( 45.2%)     2.9%
 EFF. MASS   6.0987

 VIBRATION   54   54A       ATOM PAIR        ENERGY CONTRIBUTION    RADIAL
 FREQ.      1466.13        C  1 --  C  2          +10.3% ( 51.7%)    55.6%
 T-DIPOLE    0.0601        C  2 --  C  7          +10.0% ( 50.9%)    94.7%
 TRAVEL      0.0725        C  2 --  C  3           +9.0% ( 48.2%)    88.4%
 RED. MASS   1.1514        C  2 --  C  4           +8.7% ( 47.5%)    68.5%
 EFF. MASS   8.7428

 VIBRATION   55   55A       ATOM PAIR        ENERGY CONTRIBUTION    RADIAL
 FREQ.      1860.85        C  8 --  C 10          +45.3% ( 99.3%)    98.9%
 T-DIPOLE    0.2215        C  5 --  C  8          +16.7% ( 60.3%)    54.5%
 TRAVEL      0.0554        C  8 --  H 23          +15.4% ( 58.0%)     3.9%
 RED. MASS   5.2995        C 10 --  H 26          +11.0% ( 48.9%)    11.0%
 EFF. MASS  11.7915        C 10 --  H 25          +10.8% ( 48.4%)    12.9%

 VIBRATION   56   56A       ATOM PAIR        ENERGY CONTRIBUTION    RADIAL
 FREQ.      1889.91        C  7 --  C  9          +43.5% ( 97.3%)    96.2%
 T-DIPOLE    0.1318        C  2 --  C  7          +14.4% ( 56.0%)    56.8%
 TRAVEL      0.0550        C  6 --  C  9          +14.2% ( 55.6%)    56.7%
 RED. MASS   5.3597        C  7 --  H 22          +13.2% ( 53.7%)     3.4%
 EFF. MASS  11.8091        C  9 --  H 24          +13.2% ( 53.6%)     3.2%

 VIBRATION   57   57A       ATOM PAIR        ENERGY CONTRIBUTION    RADIAL
 FREQ.      2931.65        C  2 --  H 12          +81.3% ( 92.3%)   100.0%
 T-DIPOLE    0.0821        C  1 --  H 11          +10.8% ( 33.6%)   100.0%
 TRAVEL      0.1259        C  5 --  H 17           +2.0% ( 14.4%)    97.0%
 RED. MASS   0.6848        C  5 --  H 18           +1.6% ( 12.8%)    95.5%
 EFF. MASS   1.4511

 VIBRATION   58   58A       ATOM PAIR        ENERGY CONTRIBUTION    RADIAL
 FREQ.      2937.85        C  5 --  H 18          +35.3% ( 61.5%)    96.6%
 T-DIPOLE    0.0668        C  5 --  H 17          +32.9% ( 59.3%)    96.3%
 TRAVEL      0.1231        C  1 --  H 11          +18.5% ( 44.5%)   100.0%
 RED. MASS   0.2957        C  2 --  H 12          +10.1% ( 32.9%)   100.0%
 EFF. MASS   1.5155

 VIBRATION   59   59A       ATOM PAIR        ENERGY CONTRIBUTION    RADIAL
 FREQ.      2946.85        C  1 --  H 11          +65.4% ( 82.8%)   100.0%
 T-DIPOLE    0.1180        C  5 --  H 18          +14.7% ( 39.3%)    96.9%
 TRAVEL      0.1250        C  5 --  H 17          +12.5% ( 36.2%)    96.3%
 RED. MASS   0.4788        C  2 --  H 12           +3.6% ( 19.4%)    99.9%
 EFF. MASS   1.4652

 VIBRATION   60   60A       ATOM PAIR        ENERGY CONTRIBUTION    RADIAL
 FREQ.      3017.52        C  5 --  H 17          +50.5% ( 70.1%)    97.9%
 T-DIPOLE    0.0590        C  5 --  H 18          +46.8% ( 67.5%)    97.5%
 TRAVEL      0.1322        C  8 --  H 23           +1.1% ( 10.4%)    99.8%
 RED. MASS   0.4725        C  5 --  C  8           +0.7% (  8.0%)    30.3%
 EFF. MASS   1.2787

 VIBRATION   61   61A       ATOM PAIR        ENERGY CONTRIBUTION    RADIAL
 FREQ.      3022.71        C  9 --  H 24          +91.5% ( 97.1%)   100.0%
 T-DIPOLE    0.2984        C  8 --  H 23           +4.0% ( 20.3%)   100.0%
 TRAVEL      0.1216        C  7 --  C  9           +1.4% ( 11.9%)    38.1%
 RED. MASS   0.8281        C  6 --  C  9           +1.3% ( 11.7%)    12.6%
 EFF. MASS   1.5094

 VIBRATION   62   62A       ATOM PAIR        ENERGY CONTRIBUTION    RADIAL
 FREQ.      3028.34        C  4 --  H 15          +27.1% ( 54.5%)    97.3%
 T-DIPOLE    0.0209        C  3 --  H 13          +26.8% ( 54.1%)    97.4%
 TRAVEL      0.1197        C  4 --  H 16          +21.6% ( 48.6%)    95.9%
 RED. MASS   0.2592        C  3 --  H 14          +20.2% ( 47.0%)    95.7%
 EFF. MASS   1.5546

 VIBRATION   63   63A       ATOM PAIR        ENERGY CONTRIBUTION    RADIAL
 FREQ.      3033.55        C  7 --  H 22          +95.5% ( 99.2%)   100.0%
 T-DIPOLE    0.2550        C  7 --  C  9           +1.5% ( 12.4%)    39.5%
 TRAVEL      0.1210        C  2 --  C  7           +1.4% ( 11.8%)    14.2%
 RED. MASS   0.9010        C  8 --  H 23           +0.6% (  8.1%)   100.0%
 EFF. MASS   1.5170

 VIBRATION   64   64A       ATOM PAIR        ENERGY CONTRIBUTION    RADIAL
 FREQ.      3034.72        C  8 --  H 23          +90.7% ( 96.5%)   100.0%
 T-DIPOLE    0.2293        C  9 --  H 24           +4.2% ( 20.7%)   100.0%
 TRAVEL      0.1216        C  8 --  C 10           +1.3% ( 11.7%)    31.0%
 RED. MASS   0.8099        C  5 --  C  8           +1.2% ( 11.3%)    13.6%
 EFF. MASS   1.5018

 VIBRATION   65   65A       ATOM PAIR        ENERGY CONTRIBUTION    RADIAL
 FREQ.      3042.92        C  3 --  H 13          +28.5% ( 55.5%)    97.8%
 T-DIPOLE    0.0890        C  4 --  H 15          +27.0% ( 54.0%)    97.6%
 TRAVEL      0.1203        C  4 --  H 16          +20.6% ( 47.1%)    96.1%
 RED. MASS   0.2622        C  3 --  H 14          +20.1% ( 46.6%)    95.8%
 EFF. MASS   1.5306

 VIBRATION   66   66A       ATOM PAIR        ENERGY CONTRIBUTION    RADIAL
 FREQ.      3069.51        C  6 --  H 21          +49.1% ( 72.3%)    97.0%
 T-DIPOLE    0.0145        C  6 --  H 20          +49.0% ( 72.2%)    97.0%
 TRAVEL      0.1210        C  6 --  C  9           +1.0% ( 10.2%)     0.0%
 RED. MASS   0.5093        C  6 --  H 19           +0.9% (  9.9%)     0.0%
 EFF. MASS   1.5012

 VIBRATION   67   67A       ATOM PAIR        ENERGY CONTRIBUTION    RADIAL
 FREQ.      3074.92        C  6 --  H 19          +63.3% ( 82.0%)    98.9%
 T-DIPOLE    0.0435        C  6 --  H 20          +17.3% ( 42.9%)    84.9%
 TRAVEL      0.1206        C  6 --  H 21          +17.3% ( 42.9%)    84.9%
 RED. MASS   0.4888        C  9 --  H 24           +1.0% ( 10.5%)   100.0%
 EFF. MASS   1.5087

 VIBRATION   68   68A       ATOM PAIR        ENERGY CONTRIBUTION    RADIAL
 FREQ.      3102.83        C  4 --  H 16          +30.5% ( 54.8%)    98.0%
 T-DIPOLE    0.0658        C  3 --  H 14          +26.6% ( 51.2%)    98.2%
 TRAVEL      0.1302        C  4 --  H 15          +22.6% ( 47.1%)    96.1%
 RED. MASS   0.2495        C  3 --  H 13          +18.3% ( 42.4%)    95.7%
 EFF. MASS   1.2811

 VIBRATION   69   69A       ATOM PAIR        ENERGY CONTRIBUTION    RADIAL
 FREQ.      3104.43        C  3 --  H 14          +30.7% ( 54.9%)    98.1%
 T-DIPOLE    0.0813        C  4 --  H 16          +25.0% ( 49.6%)    97.9%
 TRAVEL      0.1298        C  3 --  H 13          +22.3% ( 46.9%)    96.0%
 RED. MASS   0.2478        C  4 --  H 15          +19.8% ( 44.1%)    96.4%
 EFF. MASS   1.2890

 VIBRATION   70   70A       ATOM PAIR        ENERGY CONTRIBUTION    RADIAL
 FREQ.      3135.72        C 10 --  H 26          +91.4% ( 97.3%)    99.8%
 T-DIPOLE    0.1940        C 10 --  H 25           +7.3% ( 27.4%)    72.8%
 TRAVEL      0.1182        C  8 --  C 10           +1.3% ( 11.7%)    21.4%
 RED. MASS   0.8475
 EFF. MASS   1.5402

 VIBRATION   71   71A       ATOM PAIR        ENERGY CONTRIBUTION    RADIAL
 FREQ.      3147.85        C 10 --  H 25          +91.5% ( 96.3%)    99.7%
 T-DIPOLE    0.2500        C 10 --  H 26           +6.2% ( 25.1%)    44.3%
 TRAVEL      0.1210        C  8 --  C 10           +1.6% ( 12.7%)    73.5%
 RED. MASS   0.8137        C  8 --  H 23           +0.7% (  8.2%)    94.0%
 EFF. MASS   1.4625

 VIBRATION   72   72A       ATOM PAIR        ENERGY CONTRIBUTION    RADIAL
 FREQ.      3169.11        C  6 --  H 19          +34.4% ( 56.5%)    97.2%
 T-DIPOLE    0.0580        C  6 --  H 20          +32.7% ( 55.0%)    97.1%
 TRAVEL      0.1367        C  6 --  H 21          +32.5% ( 54.9%)    97.0%
 RED. MASS   0.3272        C  6 --  C  9           +0.3% (  5.4%)   100.0%
 EFF. MASS   1.1393

 SYMMETRY NUMBER FOR POINT-GROUP C1  =  1


          SYSTEM IS A GROUND STATE


    NULL



          MOLECULE IS NOT LINEAR

          THERE ARE 72 GENUINE VIBRATIONS IN THIS SYSTEM
          THIS THERMODYNAMICS CALCULATION IS LIMITED TO
          MOLECULES WHICH HAVE NO INTERNAL ROTATIONS




                    CALCULATED THERMODYNAMIC PROPERTIES
                                          *
   TEMP. (K)   PARTITION FUNCTION   H.O.F.    ENTHALPY  HEAT CAPACITY ENTROPY
                                   KCAL/MOL   CAL/MOLE    CAL/K/MOL  CAL/K/MOL


 298.00  VIB.     0.1969D+04                  5164.3281    35.5417    32.4031
         ROT.     0.9199D+06                   888.2813     2.9808    30.2692
         INT.     0.1811D+10                  6052.6094    38.5225    62.6722
         TRA.     0.1537D+28                  1480.4688     4.9680    40.6375
         TOT.                       17.792    7533.0783    43.4905   103.3097

 200.00  VIB.     0.1127D+03                  2329.9155    22.8077    21.0378
         ROT.     0.5058D+06                   596.1620     2.9808    29.0805
         INT.     0.5698D+08                  2926.0774    25.7885    50.1184
         TRA.     0.8452D+27                   993.6033     4.9680    38.6564
         TOT.                       14.179    3919.6807    30.7566    88.7747

 210.00  VIB.     0.1510D+03                  2563.6859    23.9529    22.1782
         ROT.     0.5442D+06                   625.9700     2.9808    29.2259
         INT.     0.8216D+08                  3189.6560    26.9338    51.4041
         TRA.     0.9094D+27                  1043.2834     4.9680    38.8988
         TOT.                       14.492    4232.9394    31.9018    90.3029

 220.00  VIB.     0.2022D+03                  2809.1076    25.1381    23.3197
         ROT.     0.5835D+06                   655.7781     2.9808    29.3646
         INT.     0.1180D+09                  3464.8857    28.1189    52.6843
         TRA.     0.9752D+27                  1092.9636     4.9680    39.1299
         TOT.                       14.817    4557.8493    33.0869    91.8142

 230.00  VIB.     0.2708D+03                  3066.5799    26.3629    24.4640
         ROT.     0.6238D+06                   685.5862     2.9808    29.4971
         INT.     0.1689D+09                  3752.1662    29.3437    53.9611
         TRA.     0.1042D+28                  1142.6437     4.9680    39.3507
         TOT.                       15.154    4894.8099    34.3118    93.3118

 240.00  VIB.     0.3625D+03                  3336.4940    27.6261    25.6125
         ROT.     0.6649D+06                   715.3943     2.9808    29.6240
         INT.     0.2410D+09                  4051.8884    30.6069    55.2365
         TRA.     0.1111D+28                  1192.3239     4.9680    39.5621
         TOT.                       15.503    5244.2123    35.5749    94.7987

 250.00  VIB.     0.4851D+03                  3619.2211    28.9250    26.7665
         ROT.     0.7069D+06                   745.2024     2.9808    29.7457
         INT.     0.3429D+09                  4364.4235    31.9058    56.5122
         TRA.     0.1181D+28                  1242.0041     4.9680    39.7650
         TOT.                       15.866    5606.4276    36.8739    96.2771

 260.00  VIB.     0.6492D+03                  3915.1033    30.2565    27.9268
         ROT.     0.7497D+06                   775.0105     2.9808    29.8626
         INT.     0.4867D+09                  4690.1138    33.2373    57.7894
         TRA.     0.1253D+28                  1291.6842     4.9680    39.9598
         TOT.                       16.241    5981.7980    38.2053    97.7492

 270.00  VIB.     0.8690D+03                  4224.4471    31.6167    29.0941
         ROT.     0.7934D+06                   804.8186     2.9808    29.9751
         INT.     0.6894D+09                  5029.2658    34.5975    59.0692
         TRA.     0.1326D+28                  1341.3644     4.9680    40.1473
         TOT.                       16.630    6370.6301    39.5655    99.2165

 280.00  VIB.     0.1163D+04                  4547.5190    33.0014    30.2689
         ROT.     0.8378D+06                   834.6267     2.9808    30.0835
         INT.     0.9747D+09                  5382.1457    35.9822    60.3524
         TRA.     0.1400D+28                  1391.0445     4.9680    40.3280
         TOT.                       17.032    6773.1903    40.9502   100.6803

 290.00  VIB.     0.1558D+04                  4884.5423    34.4063    31.4514
         ROT.     0.8831D+06                   864.4348     2.9808    30.1881
         INT.     0.1376D+10                  5748.9771    37.3871    61.6395
         TRA.     0.1476D+28                  1440.7247     4.9680    40.5023
         TOT.                       17.449    7189.7019    42.3551   102.1418

 300.00  VIB.     0.2087D+04                  5235.6966    35.8269    32.6417
         ROT.     0.9292D+06                   894.2429     2.9808    30.2891
         INT.     0.1939D+10                  6129.9395    38.8077    62.9309
         TRA.     0.1553D+28                  1490.4049     4.9680    40.6707
         TOT.                       17.879    7620.3444    43.7757   103.6016

 310.00  VIB.     0.2798D+04                  5601.1175    37.2589    33.8398
         ROT.     0.9760D+06                   924.0510     2.9808    30.3869
         INT.     0.2731D+10                  6525.1686    40.2397    64.2267
         TRA.     0.1631D+28                  1540.0850     4.9680    40.8336
         TOT.                       18.324    8065.2536    45.2077   105.0603

 320.00  VIB.     0.3753D+04                  5980.8983    38.6981    35.0455
         ROT.     0.1024D+07                   953.8591     2.9808    30.4815
         INT.     0.3841D+10                  6934.7574    41.6790    65.5270
         TRA.     0.1711D+28                  1589.7652     4.9680    40.9914
         TOT.                       18.784    8524.5226    46.6470   106.5183

 330.00  VIB.     0.5037D+04                  6375.0913    40.1407    36.2583
         ROT.     0.1072D+07                   983.6672     2.9808    30.5732
         INT.     0.5399D+10                  7358.7585    43.1215    66.8316
         TRA.     0.1791D+28                  1639.4454     4.9680    41.1442
         TOT.                       19.257    8998.2039    48.0895   107.9758

 340.00  VIB.     0.6764D+04                  6783.7112    41.5829    37.4781
         ROT.     0.1121D+07                  1013.4753     2.9808    30.6622
         INT.     0.7583D+10                  7797.1865    44.5637    68.1403
         TRA.     0.1874D+28                  1689.1255     4.9680    41.2926
         TOT.                       19.745    9486.3120    49.5317   109.4328

 350.00  VIB.     0.9091D+04                  7206.7371    43.0214    38.7042
         ROT.     0.1171D+07                  1043.2834     2.9808    30.7486
         INT.     0.1065D+11                  8250.0205    46.0022    69.4529
         TRA.     0.1957D+28                  1738.8057     4.9680    41.4366
         TOT.                       20.248    9988.8262    50.9702   110.8894

 360.00  VIB.     0.1223D+05                  7644.1164    44.4531    39.9363
         ROT.     0.1221D+07                  1073.0915     2.9808    30.8326
         INT.     0.1494D+11                  8717.2079    47.4339    70.7689
         TRA.     0.2041D+28                  1788.4859     4.9680    41.5765
         TOT.                       20.765   10505.6938    52.4019   112.3454

 370.00  VIB.     0.1646D+05                  8095.7675    45.8753    41.1737
         ROT.     0.1273D+07                  1102.8996     2.9808    30.9143
         INT.     0.2095D+11                  9198.6671    48.8561    72.0879
         TRA.     0.2127D+28                  1838.1660     4.9680    41.7126
         TOT.                       21.296   11036.8332    53.8242   113.8006

 380.00  VIB.     0.2217D+05                  8561.5833    47.2857    42.4158
         ROT.     0.1325D+07                  1132.7077     2.9808    30.9938
         INT.     0.2937D+11                  9694.2910    50.2665    73.4096
         TRA.     0.2214D+28                  1887.8462     4.9680    41.8451
         TOT.                       21.841   11582.1372    55.2345   115.2547

 390.00  VIB.     0.2989D+05                  9041.4342    48.6820    43.6622
         ROT.     0.1377D+07                  1162.5158     2.9808    31.0712
         INT.     0.4117D+11                 10203.9500    51.6628    74.7334
         TRA.     0.2302D+28                  1937.5263     4.9680    41.9742
         TOT.                       22.401   12141.4763    56.6309   116.7075

 400.00  VIB.     0.4033D+05                  9535.1712    50.0626    44.9121
         ROT.     0.1431D+07                  1192.3239     2.9808    31.1466
         INT.     0.5770D+11                 10727.4951    53.0434    76.0588
         TRA.     0.2391D+28                  1987.2065     4.9680    42.1000
         TOT.                       22.974   12714.7016    58.0114   118.1587

   *: NOTE: HEATS OF FORMATION ARE RELATIVE TO THE
            ELEMENTS IN THEIR STANDARD STATE AT 298K
              (=  Standard Enthalpy of Formation).

            Hvib:  Zero-point energy is not included.
                   frequencies of less than zero cm-1 are not included.
            Hrot = (3/2)RT
            Htra = (3/2)RT + pV = (5/2)RT

            Heat capacity is Cp, not Cv

           For more information, see: HTTP://OpenMOPAC.net/Manual/thermochemistry.html


           FORCE CONSTANT IN CARTESIAN COORDINATES (Millidynes/A)

    ATOM   CHEMICAL       X               Y               Z
   NUMBER   SYMBOL  FORCE CONSTANT  FORCE CONSTANT  FORCE CONSTANT

      1       C        7.668970        8.183666        8.656525
      2       C        7.828156        8.345444        8.936330
      3       C        8.114024        7.860586        8.590339
      4       C        8.114692        7.845369        8.584708
      5       C        8.046669        9.109425        8.397354
      6       C        8.361623        8.448000        8.657669
      7       C        6.686682       13.320209        7.360724
      8       C        3.537196       11.309040       12.260189
      9       C        6.617534       13.156019        7.415817
     10       C        3.137052       11.347195       12.027501
     11       H        1.344616        1.355316        3.561352
     12       H        1.337579        1.245636        3.535978
     13       H        1.369249        1.483984        3.764364
     14       H        1.561745        1.462731        3.610691
     15       H        1.366081        1.410651        3.850571
     16       H        1.557851        1.548447        3.524447
     17       H        1.580017        1.185741        3.620564
     18       H        4.547310        1.011183        0.679394
     19       H        3.099037        2.237274        1.431293
     20       H        2.798793        0.842026        3.025731
     21       H        1.433235        4.085122        1.147054
     22       H        2.919654        1.865526        1.421387
     23       H        0.754473        1.503673        3.959484
     24       H        2.902817        1.827870        1.443566
     25       H        0.375078        5.429609        0.673195
     26       H        0.788139        1.354056        4.325968



 TOTAL CPU TIME:             4.66 SECONDS

 == MOPAC DONE ==
