 *******************************************************************************
 ** Site#: 14399           For non-commercial use only        Version 13.159M **
 *******************************************************************************
 ** Cite this work as: MOPAC2012, James J. P. Stewart, Stewart Computational  **
 ** Chemistry, Version 13.159M web: HTTP://OpenMOPAC.net  Days remaining:   6 **
 *******************************************************************************
 **                                                                           **
 **                                MOPAC2012                                  **
 **                                                                           **
 *******************************************************************************

                            PM3 CALCULATION RESULTS


 *******************************************************************************
 *  CALCULATION DONE:                                Mon Jun  2 11:08:50 2014  *
 *  PM3      - The PM3 Hamiltonian to be used
 *  PRECISE  - CRITERIA TO BE INCREASED BY 100 TIMES
 *  NOSYM    - POINT-GROUP SYMMETRY SET TO C1
 *  T=       - A TIME OF 172800.0 SECONDS REQUESTED
 *  DUMP=N   - RESTART FILE WRITTEN EVERY  7200.000 SECONDS
 *******************************************************************************
pm3  precise nosym
 InChI=1S/C5H6/c1-2-4-5-3-1/h1,5H,2,4H2

   ATOM   CHEMICAL          X               Y               Z
  NUMBER   SYMBOL      (ANGSTROMS)     (ANGSTROMS)     (ANGSTROMS)
 
     1       C          0.50770000  *  -0.81250000  *   0.19900000  *
     2       C         -0.90300000  *  -0.30180000  *  -0.22600000  *
     3       C          1.34080000  *   0.42920000  *   0.29590000  *
     4       C         -0.76630000  *   1.19020000  *  -0.25670000  *
     5       C          0.47300000  *   1.33330000  *   0.03230000  *
     6       H          0.93060000  *  -1.52260000  *  -0.54930000  *
     7       H          0.46820000  *  -1.31170000  *   1.19490000  *
     8       H         -1.17160000  *  -0.67100000  *  -1.24280000  *
     9       H         -1.69010000  *  -0.61820000  *   0.49750000  *
    10       H          2.30730000  *   0.47320000  *  -0.19610000  *
    11       H         -1.49660000  *   1.81190000  *   0.25140000  *
 


          CARTESIAN COORDINATES 

    NO.       ATOM         X         Y         Z

     1         C        0.5077   -0.8125    0.1990
     2         C       -0.9030   -0.3018   -0.2260
     3         C        1.3408    0.4292    0.2959
     4         C       -0.7663    1.1902   -0.2567
     5         C        0.4730    1.3333    0.0323
     6         H        0.9306   -1.5226   -0.5493
     7         H        0.4682   -1.3117    1.1949
     8         H       -1.1716   -0.6710   -1.2428
     9         H       -1.6901   -0.6182    0.4975
    10         H        2.3073    0.4732   -0.1961
    11         H       -1.4966    1.8119    0.2514

  H: (PM3): J. J. P. STEWART, J. COMP. CHEM. 10, 209 (1989).
  C: (PM3): J. J. P. STEWART, J. COMP. CHEM. 10, 209 (1989).

           Empirical Formula: C5 H6  =    11 atoms



      MOLECULAR POINT GROUP   :   C1  


      RHF CALCULATION, NO. OF DOUBLY OCCUPIED LEVELS =   13

      Geometry optimization using EF

          DIAGONAL MATRIX USED AS START HESSIAN

 CYCLE:     1 TIME:   0.004 TIME LEFT:  2.00D  GRAD.:   204.924 HEAT: 129.4623
 CYCLE:     2 TIME:   0.002 TIME LEFT:  2.00D  GRAD.:   267.792 HEAT: 127.6780
 CYCLE:     3 TIME:   0.002 TIME LEFT:  2.00D  GRAD.:   131.507 HEAT: 112.8506
 CYCLE:     4 TIME:   0.005 TIME LEFT:  2.00D  GRAD.:    64.812 HEAT: 108.7596
 CYCLE:     5 TIME:   0.002 TIME LEFT:  2.00D  GRAD.:    49.692 HEAT: 106.5852
 CYCLE:     6 TIME:   0.003 TIME LEFT:  2.00D  GRAD.:    63.650 HEAT: 105.6914
 CYCLE:     7 TIME:   0.002 TIME LEFT:  2.00D  GRAD.:    48.772 HEAT: 105.0624
 CYCLE:     8 TIME:   0.004 TIME LEFT:  2.00D  GRAD.:    31.873 HEAT: 104.5923
 CYCLE:     9 TIME:   0.003 TIME LEFT:  2.00D  GRAD.:    23.578 HEAT: 104.3613
 CYCLE:    10 TIME:   0.003 TIME LEFT:  2.00D  GRAD.:    27.621 HEAT: 104.3293
 CYCLE:    11 TIME:   0.003 TIME LEFT:  2.00D  GRAD.:    15.891 HEAT: 104.1713
 CYCLE:    12 TIME:   0.002 TIME LEFT:  2.00D  GRAD.:    16.771 HEAT: 104.1231
 CYCLE:    13 TIME:   0.002 TIME LEFT:  2.00D  GRAD.:    12.239 HEAT: 104.0132
 CYCLE:    14 TIME:   0.002 TIME LEFT:  2.00D  GRAD.:     9.909 HEAT: 103.9457
 CYCLE:    15 TIME:   0.002 TIME LEFT:  2.00D  GRAD.:    10.185 HEAT: 103.8794
 CYCLE:    16 TIME:   0.002 TIME LEFT:  2.00D  GRAD.:     6.181 HEAT: 103.8084
 CYCLE:    17 TIME:   0.002 TIME LEFT:  2.00D  GRAD.:     7.326 HEAT: 103.7380
 CYCLE:    18 TIME:   0.002 TIME LEFT:  2.00D  GRAD.:     7.185 HEAT: 103.6443
 CYCLE:    19 TIME:   0.002 TIME LEFT:  2.00D  GRAD.:     5.176 HEAT: 103.5271
 CYCLE:    20 TIME:   0.002 TIME LEFT:  2.00D  GRAD.:     4.185 HEAT: 103.4823
 CYCLE:    21 TIME:   0.002 TIME LEFT:  2.00D  GRAD.:     3.173 HEAT: 103.4610
 CYCLE:    22 TIME:   0.002 TIME LEFT:  2.00D  GRAD.:     2.314 HEAT: 103.4434
 CYCLE:    23 TIME:   0.002 TIME LEFT:  2.00D  GRAD.:     1.450 HEAT: 103.4353
 CYCLE:    24 TIME:   0.002 TIME LEFT:  2.00D  GRAD.:     1.152 HEAT: 103.4317
 CYCLE:    25 TIME:   0.002 TIME LEFT:  2.00D  GRAD.:     0.764 HEAT: 103.4285
 CYCLE:    26 TIME:   0.002 TIME LEFT:  2.00D  GRAD.:     0.402 HEAT: 103.4276
 CYCLE:    27 TIME:   0.002 TIME LEFT:  2.00D  GRAD.:     0.189 HEAT: 103.4275
 CYCLE:    28 TIME:   0.002 TIME LEFT:  2.00D  GRAD.:     0.132 HEAT: 103.4274
 CYCLE:    29 TIME:   0.002 TIME LEFT:  2.00D  GRAD.:     0.086 HEAT: 103.4274
 CYCLE:    30 TIME:   0.002 TIME LEFT:  2.00D  GRAD.:     0.056 HEAT: 103.4273
 CYCLE:    31 TIME:   0.002 TIME LEFT:  2.00D  GRAD.:     0.040 HEAT: 103.4273

     RMS GRADIENT =  0.03985  IS LESS THAN CUTOFF =  0.05000



 -------------------------------------------------------------------------------
pm3  precise nosym
 InChI=1S/C5H6/c1-2-4-5-3-1/h1,5H,2,4H2



     GEOMETRY OPTIMISED USING EIGENVECTOR FOLLOWING (EF).     
     SCF FIELD WAS ACHIEVED                                   


                              PM3 CALCULATION
                                                       MOPAC2012 (Version: 13.159M)
                                                       Mon Jun  2 11:08:50 2014
                                                       No. of days left =   6




          FINAL HEAT OF FORMATION =        103.42734 KCAL/MOL =     432.73999 KJ/MOL


          TOTAL ENERGY            =       -680.71311 EV
          ELECTRONIC ENERGY       =      -2533.49476 EV  POINT GROUP:     C1  
          CORE-CORE REPULSION     =       1852.78164 EV
          COSMO AREA              =        110.25 SQUARE ANGSTROMS
          COSMO VOLUME            =         97.76 CUBIC ANGSTROMS

          GRADIENT NORM           =          0.03985
          IONIZATION POTENTIAL    =          8.541407 EV
          HOMO LUMO ENERGIES (EV) =         -8.541 -1.140
          NO. OF FILLED LEVELS    =         13
          MOLECULAR WEIGHT        =         66.102

          MOLECULAR DIMENSIONS (Angstroms)

            Atom       Atom       Distance
            H    10    H     9     4.33660
            H    11    H     6     4.02796
            H     8    H     7     2.84505


          SCF CALCULATIONS        =         36
          COMPUTATION TIME        =          0.078 SECONDS




   ATOM   CHEMICAL          X               Y               Z
  NUMBER   SYMBOL      (ANGSTROMS)     (ANGSTROMS)     (ANGSTROMS)
 
     1       C          0.48985543  *  -0.82138134  *   0.26646525  *
     2       C         -0.89369071  *  -0.31684740  *  -0.29429769  *
     3       C          1.35947239  *   0.40270232  *   0.08244878  *
     4       C         -0.80079590  *   1.17217627  *  -0.04406019  *
     5       C          0.51457730  *   1.45050577  *   0.03528010  *
     6       H          0.89454225  *  -1.67299354  *  -0.30609574  *
     7       H          0.39756162  *  -1.15940400  *   1.31319777  *
     8       H         -1.01844010  *  -0.59174971  *  -1.35603687  *
     9       H         -1.75327441  *  -0.74711668  *   0.24680626  *
    10       H          2.41823562  *   0.36519962  *  -0.16232135  *
    11       H         -1.65026464  *   1.79935600  *   0.21543706  *

           Empirical Formula: C5 H6  =    11 atoms



      MOLECULAR POINT GROUP   :   C1  


                  EIGENVALUES  
 -39.57737 -27.47814 -26.94506 -20.42017 -18.28514 -16.26913 -16.07794 -13.98341
 -13.55868 -13.43382 -12.68050 -10.64839  -8.54141  -1.14023   1.80069   3.03141
   3.10066   3.55489   3.66444   3.71424   3.86119   4.09498   4.47598   4.97415
   5.51647   6.03169


              NET ATOMIC CHARGES AND DIPOLE CONTRIBUTIONS

  ATOM NO.   TYPE          CHARGE      No. of ELECS.   s-Pop       p-Pop       
    1          C          -0.091264        4.0913     1.17520     2.91606
    2          C          -0.091251        4.0913     1.17519     2.91606
    3          C          -0.008222        4.0082     1.20109     2.80714
    4          C          -0.008196        4.0082     1.20109     2.80711
    5          C          -0.292706        4.2927     1.36195     2.93075
    6          H           0.061712        0.9383     0.93829
    7          H           0.066808        0.9332     0.93319
    8          H           0.066811        0.9332     0.93319
    9          H           0.061729        0.9383     0.93827
   10          H           0.117288        0.8827     0.88271
   11          H           0.117291        0.8827     0.88271
 DIPOLE           X         Y         Z       TOTAL
 POINT-CHG.    -0.590    -1.662    -0.040     1.764
 HYBRID        -0.203    -0.571    -0.014     0.606
 SUM           -0.793    -2.233    -0.054     2.370


          ATOMIC ORBITAL ELECTRON POPULATIONS

    Atom      s        px        py        pz   
    1  C   1.17520   0.93785   0.96871   1.00950
    2  C   1.17519   0.96858   0.93771   1.00977
    3  C   1.20109   0.99540   0.89593   0.91581
    4  C   1.20109   0.97518   0.90901   0.92292
    5  C   1.36195   0.94722   1.06421   0.91932
    6  H   0.93829
    7  H   0.93319
    8  H   0.93319
    9  H   0.93827
   10  H   0.88271
   11  H   0.88271
 *******************************************************************************
 ** Site#: 14399           For non-commercial use only        Version 13.159M **
 *******************************************************************************
 ** Cite this work as: MOPAC2012, James J. P. Stewart, Stewart Computational  **
 ** Chemistry, Version 13.159M web: HTTP://OpenMOPAC.net  Days remaining:   6 **
 *******************************************************************************
 **                                                                           **
 **                                MOPAC2012                                  **
 **                                                                           **
 *******************************************************************************

                            PM3 CALCULATION RESULTS


 *******************************************************************************
 *  CALCULATION DONE:                                Mon Jun  2 11:08:50 2014  *
 *  PM3      - The PM3 Hamiltonian to be used
 *  OLDGEO   - PREVIOUS GEOMETRY TO BE USED
 *  PRECISE  - CRITERIA TO BE INCREASED BY 100 TIMES
 *  NOSYM    - POINT-GROUP SYMMETRY SET TO C1
 *  T=       - A TIME OF 172800.0 SECONDS REQUESTED
 *  DUMP=N   - RESTART FILE WRITTEN EVERY  7200.000 SECONDS
 *  THERMO   - THERMODYNAMIC QUANTITIES TO BE CALCULATED
 *******************************************************************************
oldgeo thermo nosym precise  pm3

   ATOM   CHEMICAL          X               Y               Z
  NUMBER   SYMBOL      (ANGSTROMS)     (ANGSTROMS)     (ANGSTROMS)
 
     1       C          0.48985543  *  -0.82138134  *   0.26646525  *
     2       C         -0.89369071  *  -0.31684740  *  -0.29429769  *
     3       C          1.35947239  *   0.40270232  *   0.08244878  *
     4       C         -0.80079590  *   1.17217627  *  -0.04406019  *
     5       C          0.51457730  *   1.45050577  *   0.03528010  *
     6       H          0.89454225  *  -1.67299354  *  -0.30609574  *
     7       H          0.39756162  *  -1.15940400  *   1.31319777  *
     8       H         -1.01844010  *  -0.59174971  *  -1.35603687  *
     9       H         -1.75327441  *  -0.74711668  *   0.24680626  *
    10       H          2.41823562  *   0.36519962  *  -0.16232135  *
    11       H         -1.65026464  *   1.79935600  *   0.21543706  *
 


          CARTESIAN COORDINATES 

    NO.       ATOM         X         Y         Z

     1         C        0.4899   -0.8214    0.2665
     2         C       -0.8937   -0.3168   -0.2943
     3         C        1.3595    0.4027    0.0824
     4         C       -0.8008    1.1722   -0.0441
     5         C        0.5146    1.4505    0.0353
     6         H        0.8945   -1.6730   -0.3061
     7         H        0.3976   -1.1594    1.3132
     8         H       -1.0184   -0.5917   -1.3560
     9         H       -1.7533   -0.7471    0.2468
    10         H        2.4182    0.3652   -0.1623
    11         H       -1.6503    1.7994    0.2154

  H: (PM3): J. J. P. STEWART, J. COMP. CHEM. 10, 209 (1989).
  C: (PM3): J. J. P. STEWART, J. COMP. CHEM. 10, 209 (1989).

           Empirical Formula: C5 H6  =    11 atoms



      MOLECULAR POINT GROUP   :   C1  


      RHF CALCULATION, NO. OF DOUBLY OCCUPIED LEVELS =   13



          HEAT OF FORMATION =     103.427341 KCALS/MOLE


          INTERNAL COORDINATE DERIVATIVES

   NUMBER  ATOM       BOND         ANGLE      DIHEDRAL

     1       C      0.005634     0.000624    -0.006302
     2       C      0.005042    -0.000082     0.000829
     3       C      0.006769    -0.010771     0.000028
     4       C      0.003546    -0.009909     0.001449
     5       C      0.008904    -0.003954     0.008750
     6       H      0.007948    -0.000011     0.005331
     7       H     -0.010881     0.002767     0.004576
     8       H     -0.018073     0.010384     0.003217
     9       H      0.000425     0.006611    -0.010147
    10       H     -0.014593     0.002511    -0.001243
    11       H      0.005280     0.001829    -0.006487


          GRADIENT NORM =   0.04085


          TIME FOR SCF CALCULATION =    0.00

          TIME FOR DERIVATIVES     =    0.00

          MOLECULAR WEIGHT =   66.10



          ROTATIONAL CONSTANTS IN CM(-1)

          A =    0.28411531   B =    0.25965242   C =    0.14718422



           PRINCIPAL MOMENTS OF INERTIA IN UNITS OF 10**(-40)*GRAM-CM**2

          A =       98.5261   B =      107.8086   C =      190.1887


          ORIENTATION OF MOLECULE IN FORCE CALCULATION

    NO.       ATOM         X         Y         Z

     1          C      -0.7879   -0.9092    0.2204
     2          C       0.7879   -0.9092    0.2204
     3          C      -1.0940    0.5723    0.2204
     4          C       1.0940    0.4079   -0.4580
     5          C       0.0000    1.1740   -0.2845
     6          H      -1.2121   -1.3918    1.1170
     7          H      -1.1876   -1.4552   -0.6517
     8          H       1.1872   -0.9951    1.2458
     9          H       1.2123   -1.7488   -0.3556
    10          H      -1.9485    1.0167    0.7251
    11          H       1.9483    0.5717   -1.1104


    FIRST DERIVATIVES WILL BE USED IN THE CALCULATION OF SECOND DERIVATIVES

          ESTIMATED TIME TO COMPLETE CALCULATION =        0.46 SECONDS

    FOR POINT-GROUP C1   THERE ARE   1 UNIQUE SYMMETRY FUNCTIONS.

 STEP:   1 TIME =     0.01 SECS, INTEGRAL =      0.01 TIME LEFT: 172799.99
 STEP:   2 TIME =     0.01 SECS, INTEGRAL =      0.02 TIME LEFT: 172799.98
 STEP:   3 TIME =     0.01 SECS, INTEGRAL =      0.03 TIME LEFT: 172799.97
 STEP:   4 TIME =     0.01 SECS, INTEGRAL =      0.04 TIME LEFT: 172799.96
 STEP:   5 TIME =     0.01 SECS, INTEGRAL =      0.04 TIME LEFT: 172799.95
 STEP:   6 TIME =     0.01 SECS, INTEGRAL =      0.05 TIME LEFT: 172799.94
 STEP:   7 TIME =     0.01 SECS, INTEGRAL =      0.06 TIME LEFT: 172799.94
 STEP:   8 TIME =     0.01 SECS, INTEGRAL =      0.07 TIME LEFT: 172799.93
 STEP:   9 TIME =     0.01 SECS, INTEGRAL =      0.08 TIME LEFT: 172799.92
 STEP:  10 TIME =     0.01 SECS, INTEGRAL =      0.08 TIME LEFT: 172799.91
 STEP:  11 TIME =     0.01 SECS, INTEGRAL =      0.09 TIME LEFT: 172799.90
 STEP:  12 TIME =     0.01 SECS, INTEGRAL =      0.10 TIME LEFT: 172799.90
 STEP:  13 TIME =     0.01 SECS, INTEGRAL =      0.11 TIME LEFT: 172799.89
 STEP:  14 TIME =     0.01 SECS, INTEGRAL =      0.12 TIME LEFT: 172799.88
 STEP:  15 TIME =     0.01 SECS, INTEGRAL =      0.13 TIME LEFT: 172799.87
 STEP:  16 TIME =     0.01 SECS, INTEGRAL =      0.13 TIME LEFT: 172799.86
 STEP:  17 TIME =     0.01 SECS, INTEGRAL =      0.14 TIME LEFT: 172799.85
 STEP:  18 TIME =     0.01 SECS, INTEGRAL =      0.15 TIME LEFT: 172799.85
 STEP:  19 TIME =     0.01 SECS, INTEGRAL =      0.16 TIME LEFT: 172799.84
 STEP:  20 TIME =     0.01 SECS, INTEGRAL =      0.17 TIME LEFT: 172799.83
 STEP:  21 TIME =     0.01 SECS, INTEGRAL =      0.17 TIME LEFT: 172799.82
 STEP:  22 TIME =     0.01 SECS, INTEGRAL =      0.18 TIME LEFT: 172799.81
 STEP:  23 TIME =     0.01 SECS, INTEGRAL =      0.19 TIME LEFT: 172799.81
 STEP:  24 TIME =     0.01 SECS, INTEGRAL =      0.20 TIME LEFT: 172799.80
 STEP:  25 TIME =     0.01 SECS, INTEGRAL =      0.21 TIME LEFT: 172799.79
 STEP:  26 TIME =     0.01 SECS, INTEGRAL =      0.21 TIME LEFT: 172799.78
 STEP:  27 TIME =     0.01 SECS, INTEGRAL =      0.22 TIME LEFT: 172799.77
 STEP:  28 TIME =     0.01 SECS, INTEGRAL =      0.23 TIME LEFT: 172799.77
 STEP:  29 TIME =     0.01 SECS, INTEGRAL =      0.24 TIME LEFT: 172799.76
 STEP:  30 TIME =     0.01 SECS, INTEGRAL =      0.25 TIME LEFT: 172799.75
 STEP:  31 TIME =     0.01 SECS, INTEGRAL =      0.25 TIME LEFT: 172799.74
 STEP:  32 TIME =     0.01 SECS, INTEGRAL =      0.26 TIME LEFT: 172799.73
 STEP:  33 TIME =     0.01 SECS, INTEGRAL =      0.27 TIME LEFT: 172799.73

(To convert to Hartree/Bohr^2, multiply by (10^(-21) x N x a0^2)/(4.184 x 627.51) = 0.0642)


           FORCE MATRIX IN MILLIDYNES/ANGSTROM


                  C  1       C  2       C  3       C  4       C  5       H  6
 ------------------------------------------------------------------------------
     C    1  13.874616
     C    2   2.795561  13.877290
     C    3   3.931304   0.964274  16.707523
     C    4   0.966343   3.930124   1.606614  16.708521
     C    5   1.479516   1.482492   9.047181   9.046910  15.931620
     H    6   4.605821   0.413684   0.417231   0.058146   0.054511   5.208281
     H    7   4.565531   0.437300   0.429549   0.015379   0.055713   0.560955
     H    8   0.437169   4.566079   0.015174   0.429054   0.056286   0.031837
     H    9   0.413956   4.605359   0.058086   0.417719   0.054602   0.013438
     H   10   0.409498   0.041085   5.073981   0.144571   0.470749   0.021003
     H   11   0.040995   0.409726   0.144473   5.073731   0.470148   0.008378


                  H  7       H  8       H  9       H 10       H 11
 ------------------------------------------------------------------
     H    7   5.197717
     H    8   0.033994   5.198490
     H    9   0.031814   0.561270   5.208143
     H   10   0.017373   0.003852   0.008382   5.465789
     H   11   0.003696   0.017554   0.020924   0.024251   5.465732


          HEAT OF FORMATION =     103.427341 KCALS/MOLE

          ZERO POINT ENERGY      57.390 KCAL/MOL


           NORMAL COORDINATE ANALYSIS (Total motion = 1 Angstrom)


   Root No.       1         2         3         4         5         6         7         8

                 1 A       2 A       3 A       4 A       5 A       6 A       7 A       8 A   

                 262.3     424.2     659.3     665.2     805.2     818.5     889.8     962.5
  
           1    0.0029    0.0156    0.0395   -0.0359    0.0306   -0.0060   -0.0047    0.0601
           2    0.0029    0.0036   -0.0443   -0.0320    0.0260   -0.0103   -0.0050    0.0194
           3    0.0426    0.0022    0.0117   -0.0047   -0.0280   -0.0190    0.0251   -0.0295
           4   -0.0027    0.0155   -0.0467   -0.0335    0.0301    0.0071   -0.0047   -0.0600
           5   -0.0170   -0.0024   -0.0390    0.0285   -0.0361   -0.0018    0.0161    0.0306
           6   -0.0390    0.0034    0.0061   -0.0198   -0.0143    0.0209    0.0201    0.0172
           7   -0.0122   -0.0223    0.0983    0.0207   -0.0328    0.0077   -0.0104   -0.0094
           8   -0.0038    0.0053   -0.0363   -0.0285    0.0309    0.0001   -0.0073    0.0007
           9   -0.0374   -0.0459   -0.0018   -0.0108   -0.0123   -0.0309   -0.0376    0.0185
          10    0.0122   -0.0225   -0.0933    0.0263   -0.0325   -0.0090   -0.0105    0.0094
          11    0.0138   -0.0259   -0.0270    0.0220   -0.0338    0.0130   -0.0108   -0.0077
          12    0.0351   -0.0382    0.0139   -0.0235    0.0021    0.0272   -0.0371   -0.0167
          13   -0.0001    0.0293    0.0021    0.0220   -0.0176   -0.0002    0.0090    0.0000
          14    0.0068    0.0245    0.1712    0.0007    0.0021    0.0118    0.0067   -0.0159
          15   -0.0018    0.1001   -0.0394    0.0242    0.0091   -0.0024    0.0276    0.0039
          16    0.0533    0.0197   -0.0012    0.0251    0.0844   -0.0154   -0.1033    0.1239
          17    0.0869    0.0574   -0.0550    0.0622    0.1174    0.0866   -0.0492    0.0631
          18    0.1137    0.0341   -0.0096    0.0806    0.0479    0.0308   -0.0496    0.0285
          19   -0.0578    0.0189    0.0234   -0.0987   -0.0109    0.0067    0.1374    0.0632
          20   -0.0732   -0.0533   -0.0206   -0.1316   -0.0467   -0.1097   -0.0018   -0.0741
          21    0.1187    0.0374   -0.0005    0.0909    0.0425    0.0409   -0.0467    0.0277
          22    0.0580    0.0191   -0.0424   -0.0962   -0.0103   -0.0077    0.1366   -0.0644
          23   -0.1208    0.0645    0.0127    0.1596    0.0671   -0.1124   -0.0207   -0.0783
          24   -0.0719    0.0085    0.0134    0.0192    0.0153    0.0146   -0.0418    0.0097
          25   -0.0536    0.0196    0.0053    0.0247    0.0835    0.0190   -0.1035   -0.1231
          26    0.0256   -0.0356   -0.0471   -0.0163   -0.0858    0.0592    0.0214    0.0427
          27   -0.1419    0.0564    0.0522    0.0977    0.0997   -0.0622   -0.0671   -0.0535
          28   -0.0462   -0.1316    0.0068    0.0747    0.0557    0.1403    0.0930   -0.0710
          29    0.0024   -0.0301   -0.1214   -0.0160    0.0112    0.0052    0.0207   -0.1375
          30   -0.0991   -0.2014   -0.0795    0.0720    0.1579    0.1918    0.1147    0.0346
          31    0.0461   -0.1309    0.0086    0.0758    0.0623   -0.1374    0.0936    0.0710
          32    0.0474   -0.0649   -0.0615    0.0522    0.0665   -0.0806    0.0342   -0.1381
          33    0.0870   -0.1913    0.1372    0.0509    0.1540   -0.1665    0.1119    0.0321


   Root No.       9        10        11        12        13        14        15        16

                 9 A      10 A      11 A      12 A      13 A      14 A      15 A      16 A   

                 985.1    1014.4    1056.0    1061.3    1092.7    1161.7    1162.2    1216.1
  
           1   -0.0370    0.0031    0.0244    0.0062   -0.0002   -0.0054   -0.0365   -0.0444
           2   -0.0007    0.0343   -0.0197    0.0129    0.0199    0.0007   -0.0285    0.0529
           3   -0.0327   -0.0039    0.0134    0.0180    0.0359    0.0034    0.0070    0.0042
           4    0.0370    0.0031   -0.0247    0.0047    0.0003   -0.0257    0.0261    0.0445
           5    0.0143   -0.0323   -0.0234   -0.0047    0.0012    0.0180   -0.0224    0.0450
           6    0.0293    0.0122   -0.0042    0.0222   -0.0408   -0.0014    0.0074   -0.0280
           7    0.0167    0.0151   -0.0021   -0.0006   -0.0066    0.0114   -0.0195    0.0084
           8   -0.0030   -0.0315    0.0255   -0.0155   -0.0081    0.0262    0.0595   -0.0414
           9    0.0358    0.0050    0.0116   -0.0291   -0.0059   -0.0047    0.0012    0.0025
          10   -0.0167    0.0150    0.0021   -0.0006    0.0066   -0.0023    0.0225   -0.0084
          11   -0.0190    0.0303    0.0173    0.0016   -0.0044   -0.0517    0.0269   -0.0377
          12   -0.0303   -0.0100   -0.0200   -0.0342    0.0086    0.0232   -0.0181    0.0166
          13    0.0000   -0.0077   -0.0001    0.0033    0.0000    0.0230    0.0076   -0.0001
          14    0.0026   -0.0015   -0.0061    0.0029   -0.0023   -0.0114    0.0225    0.0104
          15   -0.0007   -0.0061    0.0010    0.0124    0.0006   -0.0130   -0.0106   -0.0025
          16   -0.0965   -0.1516   -0.0593    0.0705   -0.1695    0.0304    0.0442    0.1272
          17    0.1528    0.1688   -0.0039   -0.0605    0.0602   -0.0456   -0.1535   -0.0987
          18    0.0226   -0.0047   -0.0164    0.0102   -0.0240   -0.0040   -0.0174    0.0044
          19   -0.0276    0.0245    0.1830   -0.1615    0.1083    0.0413    0.0226    0.1589
          20   -0.1046    0.0196   -0.1239    0.1781    0.0344   -0.0315   -0.1179   -0.0996
          21    0.0332   -0.0056    0.0047   -0.0079   -0.0236    0.0019    0.0347    0.0063
          22    0.0265    0.0246   -0.1738   -0.1702   -0.1099    0.0459    0.0062   -0.1599
          23   -0.1080   -0.0200   -0.1026   -0.1680    0.0393    0.0941   -0.0801   -0.0924
          24    0.0187    0.0040    0.0482    0.0772    0.0058   -0.0237    0.0110    0.0402
          25    0.0974   -0.1520    0.0558    0.0722    0.1701    0.0496   -0.0174   -0.1268
          26    0.1251   -0.1523    0.0007    0.0577    0.0650    0.1069   -0.0805   -0.0903
          27   -0.0892    0.0731    0.0178   -0.0170   -0.0063   -0.0705    0.0545    0.0421
          28   -0.0672   -0.0433    0.0220    0.0179   -0.0348   -0.0613   -0.1166    0.0280
          29   -0.0199   -0.1587    0.1504   -0.0731   -0.1315   -0.1795   -0.1996    0.0152
          30   -0.0909    0.0209   -0.0601    0.0528    0.0588    0.0520    0.0716   -0.0133
          31    0.0671   -0.0434   -0.0232    0.0159    0.0349   -0.1184    0.0571   -0.0274
          32    0.0243    0.1510    0.1561    0.1002   -0.1428    0.2713   -0.0594    0.0180
          33    0.0899   -0.0541   -0.0164    0.0121    0.0079   -0.0454    0.0008    0.0050


   Root No.      17        18        19        20        21        22        23        24

                17 A      18 A      19 A      20 A      21 A      22 A      23 A      24 A   

                1304.5    1387.4    1398.8    1558.5    1820.7    2996.6    3008.8    3074.2
  
           1   -0.0384    0.0146    0.0235    0.0069    0.0104   -0.0002    0.0004   -0.0142
           2    0.0589    0.0414    0.0305   -0.0147   -0.0015    0.0016   -0.0013   -0.0173
           3   -0.0052   -0.0031   -0.0026   -0.0065   -0.0007    0.0304   -0.0299    0.0011
           4   -0.0384    0.0153   -0.0231   -0.0069    0.0104    0.0002    0.0005   -0.0136
           5   -0.0547   -0.0390    0.0273   -0.0102    0.0010   -0.0124   -0.0127    0.0151
           6    0.0224    0.0165   -0.0112    0.0126   -0.0013   -0.0274   -0.0276   -0.0067
           7    0.0080   -0.0004   -0.0024   -0.1282   -0.1373    0.0006   -0.0007    0.0002
           8   -0.0350   -0.0107   -0.0114   -0.0611   -0.0712    0.0000    0.0002   -0.0007
           9   -0.0002   -0.0003    0.0014    0.0463    0.0503   -0.0003    0.0002    0.0000
          10    0.0080   -0.0005    0.0024    0.1282   -0.1374   -0.0006   -0.0007    0.0001
          11    0.0310    0.0096   -0.0105   -0.0755    0.0863    0.0002   -0.0001    0.0006
          12   -0.0162   -0.0053    0.0038   -0.0131    0.0122    0.0003    0.0003   -0.0003
          13   -0.0007   -0.0029   -0.0001    0.0000    0.2748    0.0000   -0.0001    0.0006
          14    0.0006    0.0005   -0.0020    0.1311   -0.0188   -0.0001   -0.0001    0.0000
          15    0.0024    0.0016    0.0005   -0.0318   -0.0779    0.0000   -0.0003   -0.0001
          16    0.2011   -0.0709   -0.1200   -0.0252   -0.0091    0.0868   -0.0908    0.0877
          17   -0.0482   -0.1459   -0.1208    0.0630    0.0226    0.1000   -0.1010    0.0985
          18    0.0474   -0.1264   -0.1342    0.0219    0.0073   -0.1782    0.1794   -0.2094
          19    0.1479   -0.0908   -0.1280   -0.0166   -0.0156   -0.0872    0.0885    0.0789
          20   -0.0291   -0.1352   -0.1127    0.0172    0.0142   -0.1225    0.1173    0.1099
          21   -0.0305    0.1374    0.1367   -0.0177   -0.0023   -0.1893    0.1808    0.1976
          22    0.1483   -0.0949    0.1258    0.0167   -0.0154    0.0857    0.0895    0.0750
          23    0.0120    0.1875   -0.1575    0.0232   -0.0140   -0.0219   -0.0218   -0.0069
          24   -0.0404    0.0623   -0.0683    0.0078    0.0045    0.2212    0.2173    0.2154
          25    0.2009   -0.0742    0.1177    0.0254   -0.0090   -0.0856   -0.0922    0.0832
          26    0.0646    0.0730   -0.0440    0.0459   -0.0168    0.1683    0.1745   -0.1741
          27    0.0200   -0.1841    0.1696   -0.0482    0.0171    0.1111    0.1150   -0.1337
          28    0.0171    0.0105    0.0110   -0.0314   -0.0989   -0.0068    0.0060   -0.0023
          29    0.0040    0.0140    0.0166    0.1347    0.0401    0.0023   -0.0020    0.0004
          30   -0.0196   -0.0037   -0.0014    0.0895    0.0857    0.0046   -0.0043    0.0008
          31    0.0171    0.0108   -0.0107    0.0314   -0.0987    0.0067    0.0061   -0.0018
          32   -0.0125   -0.0146    0.0150    0.0786    0.0036    0.0000   -0.0002    0.0001
          33   -0.0155    0.0034   -0.0063   -0.1413    0.0949   -0.0051   -0.0048    0.0005


   Root No.      25        26        27

                25 A      26 A      27 A   

                3075.5    3140.2    3143.3
  
           1    0.0121    0.0000   -0.0012
           2    0.0162   -0.0001   -0.0013
           3   -0.0018    0.0009    0.0012
           4   -0.0128    0.0000    0.0012
           5    0.0159    0.0004   -0.0017
           6   -0.0062    0.0007   -0.0005
           7   -0.0004   -0.0316   -0.0324
           8    0.0007    0.0140    0.0137
           9    0.0004    0.0181    0.0179
          10    0.0004   -0.0317    0.0324
          11    0.0005   -0.0042    0.0040
          12   -0.0007    0.0224   -0.0222
          13    0.0000    0.0047    0.0000
          14   -0.0007   -0.0003    0.0040
          15    0.0002   -0.0013   -0.0010
          16   -0.0855    0.0028    0.0056
          17   -0.0937    0.0059    0.0092
          18    0.1992   -0.0070   -0.0149
          19   -0.0725   -0.0021    0.0005
          20   -0.0995   -0.0033    0.0001
          21   -0.1803   -0.0035    0.0024
          22    0.0763   -0.0021   -0.0005
          23   -0.0062    0.0013   -0.0010
          24    0.2172   -0.0048   -0.0023
          25    0.0897    0.0027   -0.0056
          26   -0.1832   -0.0085    0.0150
          27   -0.1407   -0.0036    0.0090
          28    0.0093    0.3486    0.3435
          29   -0.0045   -0.1820   -0.1793
          30   -0.0051   -0.2024   -0.1996
          31   -0.0093    0.3491   -0.3427
          32   -0.0016    0.0692   -0.0679
          33    0.0065   -0.2641    0.2592


           MASS-WEIGHTED COORDINATE ANALYSIS (NORMAL COORDINATES)


   Root No.       1         2         3         4         5         6         7         8

                 1 A       2 A       3 A       4 A       5 A       6 A       7 A       8 A   

                 262.3     424.2     659.3     665.2     805.2     818.5     889.8     962.5
  
           1    0.0221    0.0919    0.1566   -0.2651    0.2196   -0.0478   -0.0377    0.4234
           2    0.0223    0.0214   -0.1758   -0.2358    0.1868   -0.0818   -0.0403    0.1365
           3    0.3304    0.0131    0.0466   -0.0343   -0.2011   -0.1504    0.2030   -0.2081
           4   -0.0212    0.0913   -0.1852   -0.2470    0.2164    0.0559   -0.0378   -0.4231
           5   -0.1319   -0.0141   -0.1549    0.2103   -0.2593   -0.0140    0.1301    0.2159
           6   -0.3027    0.0199    0.0241   -0.1459   -0.1026    0.1657    0.1627    0.1214
           7   -0.0949   -0.1318    0.3902    0.1525   -0.2356    0.0612   -0.0844   -0.0660
           8   -0.0291    0.0314   -0.1441   -0.2100    0.2221    0.0008   -0.0591    0.0051
           9   -0.2899   -0.2714   -0.0071   -0.0798   -0.0885   -0.2445   -0.3040    0.1302
          10    0.0948   -0.1330   -0.3702    0.1940   -0.2337   -0.0710   -0.0845    0.0660
          11    0.1068   -0.1529   -0.1072    0.1623   -0.2428    0.1028   -0.0876   -0.0545
          12    0.2722   -0.2259    0.0553   -0.1733    0.0152    0.2154   -0.2995   -0.1180
          13   -0.0007    0.1733    0.0083    0.1622   -0.1262   -0.0019    0.0724   -0.0001
          14    0.0527    0.1449    0.6794    0.0051    0.0149    0.0930    0.0538   -0.1124
          15   -0.0143    0.5914   -0.1565    0.1787    0.0651   -0.0190    0.2233    0.0277
          16    0.1198    0.0337   -0.0014    0.0537    0.1756   -0.0354   -0.2419    0.2529
          17    0.1950    0.0982   -0.0632    0.1330    0.2443    0.1986   -0.1152    0.1289
          18    0.2554    0.0583   -0.0111    0.1722    0.0997    0.0706   -0.1161    0.0581
          19   -0.1298    0.0323    0.0270   -0.2110   -0.0227    0.0154    0.3216    0.1290
          20   -0.1645   -0.0911   -0.0237   -0.2813   -0.0972   -0.2516   -0.0041   -0.1513
          21    0.2665    0.0641   -0.0006    0.1943    0.0884    0.0938   -0.1092    0.0566
          22    0.1302    0.0327   -0.0487   -0.2057   -0.0214   -0.0177    0.3198   -0.1316
          23   -0.2714    0.1103    0.0146    0.3411    0.1396   -0.2578   -0.0484   -0.1599
          24   -0.1614    0.0146    0.0154    0.0410    0.0318    0.0336   -0.0979    0.0198
          25   -0.1205    0.0336    0.0061    0.0527    0.1738    0.0435   -0.2422   -0.2514
          26    0.0574   -0.0610   -0.0541   -0.0349   -0.1785    0.1357    0.0501    0.0872
          27   -0.3186    0.0965    0.0600    0.2087    0.2075   -0.1427   -0.1571   -0.1092
          28   -0.1037   -0.2251    0.0078    0.1596    0.1159    0.3218    0.2176   -0.1451
          29    0.0054   -0.0516   -0.1396   -0.0342    0.0233    0.0118    0.0484   -0.2808
          30   -0.2226   -0.3447   -0.0913    0.1540    0.3286    0.4399    0.2684    0.0707
          31    0.1036   -0.2240    0.0099    0.1621    0.1298   -0.3152    0.2190    0.1451
          32    0.1064   -0.1110   -0.0706    0.1115    0.1384   -0.1848    0.0801   -0.2821
          33    0.1954   -0.3273    0.1577    0.1087    0.3205   -0.3818    0.2619    0.0656


   Root No.       9        10        11        12        13        14        15        16

                 9 A      10 A      11 A      12 A      13 A      14 A      15 A      16 A   

                 985.1    1014.4    1056.0    1061.3    1092.7    1161.7    1162.2    1216.1
  
           1   -0.2762    0.0229    0.1897    0.0482   -0.0018   -0.0386   -0.2583   -0.2883
           2   -0.0051    0.2526   -0.1529    0.0999    0.1621    0.0047   -0.2021    0.3430
           3   -0.2446   -0.0290    0.1041    0.1392    0.2920    0.0244    0.0499    0.0272
           4    0.2766    0.0229   -0.1924    0.0366    0.0022   -0.1829    0.1853    0.2890
           5    0.1066   -0.2377   -0.1822   -0.0364    0.0097    0.1285   -0.1584    0.2921
           6    0.2188    0.0902   -0.0324    0.1718   -0.3319   -0.0102    0.0525   -0.1815
           7    0.1250    0.1110   -0.0162   -0.0049   -0.0538    0.0815   -0.1380    0.0544
           8   -0.0223   -0.2323    0.1982   -0.1200   -0.0658    0.1868    0.4217   -0.2687
           9    0.2671    0.0366    0.0900   -0.2248   -0.0476   -0.0332    0.0085    0.0163
          10   -0.1250    0.1108    0.0167   -0.0048    0.0541   -0.0162    0.1595   -0.0544
          11   -0.1422    0.2231    0.1342    0.0122   -0.0359   -0.3680    0.1903   -0.2446
          12   -0.2266   -0.0735   -0.1552   -0.2649    0.0697    0.1656   -0.1280    0.1080
          13   -0.0003   -0.0569   -0.0006    0.0255    0.0001    0.1635    0.0539   -0.0007
          14    0.0193   -0.0109   -0.0474    0.0220   -0.0187   -0.0810    0.1594    0.0675
          15   -0.0049   -0.0449    0.0081    0.0960    0.0051   -0.0928   -0.0753   -0.0162
          16   -0.2087   -0.3233   -0.1335    0.1579   -0.3992    0.0627    0.0906    0.2390
          17    0.3306    0.3601   -0.0088   -0.1356    0.1418   -0.0942   -0.3151   -0.1855
          18    0.0489   -0.0100   -0.0370    0.0229   -0.0566   -0.0083   -0.0356    0.0082
          19   -0.0598    0.0524    0.4121   -0.3618    0.2550    0.0853    0.0463    0.2987
          20   -0.2263    0.0418   -0.2791    0.3990    0.0810   -0.0650   -0.2421   -0.1872
          21    0.0719   -0.0120    0.0106   -0.0177   -0.0555    0.0039    0.0713    0.0118
          22    0.0574    0.0525   -0.3914   -0.3813   -0.2588    0.0947    0.0128   -0.3005
          23   -0.2338   -0.0427   -0.2312   -0.3765    0.0925    0.1942   -0.1643   -0.1737
          24    0.0405    0.0086    0.1086    0.1729    0.0137   -0.0489    0.0226    0.0756
          25    0.2107   -0.3241    0.1256    0.1619    0.4006    0.1024   -0.0358   -0.2382
          26    0.2707   -0.3249    0.0017    0.1292    0.1531    0.2206   -0.1651   -0.1696
          27   -0.1930    0.1558    0.0401   -0.0381   -0.0149   -0.1455    0.1119    0.0791
          28   -0.1454   -0.0923    0.0494    0.0402   -0.0821   -0.1264   -0.2394    0.0525
          29   -0.0430   -0.3386    0.3387   -0.1639   -0.3097   -0.3704   -0.4097    0.0286
          30   -0.1967    0.0446   -0.1354    0.1183    0.1386    0.1073    0.1470   -0.0249
          31    0.1453   -0.0926   -0.0523    0.0356    0.0823   -0.2442    0.1172   -0.0515
          32    0.0526    0.3221    0.3517    0.2244   -0.3362    0.5598   -0.1219    0.0339
          33    0.1946   -0.1154   -0.0369    0.0271    0.0186   -0.0938    0.0016    0.0095


   Root No.      17        18        19        20        21        22        23        24

                17 A      18 A      19 A      20 A      21 A      22 A      23 A      24 A   

                1304.5    1387.4    1398.8    1558.5    1820.7    2996.6    3008.8    3074.2
  
           1   -0.2468    0.1045    0.1715    0.0262    0.0279   -0.0015    0.0030   -0.1009
           2    0.3790    0.2974    0.2230   -0.0562   -0.0040    0.0114   -0.0095   -0.1225
           3   -0.0331   -0.0224   -0.0192   -0.0249   -0.0018    0.2170   -0.2134    0.0079
           4   -0.2469    0.1098   -0.1686   -0.0262    0.0278    0.0017    0.0032   -0.0963
           5   -0.3519   -0.2801    0.1993   -0.0387    0.0028   -0.0881   -0.0907    0.1067
           6    0.1440    0.1184   -0.0817    0.0480   -0.0035   -0.1953   -0.1967   -0.0472
           7    0.0517   -0.0032   -0.0173   -0.4881   -0.3692    0.0044   -0.0048    0.0012
           8   -0.2254   -0.0767   -0.0832   -0.2328   -0.1914    0.0003    0.0017   -0.0051
           9   -0.0013   -0.0024    0.0104    0.1762    0.1352   -0.0022    0.0014   -0.0001
          10    0.0513   -0.0037    0.0174    0.4880   -0.3694   -0.0042   -0.0049    0.0010
          11    0.1997    0.0689   -0.0770   -0.2874    0.2319    0.0012   -0.0009    0.0043
          12   -0.1041   -0.0383    0.0280   -0.0501    0.0327    0.0018    0.0020   -0.0022
          13   -0.0046   -0.0210   -0.0005    0.0000    0.7385   -0.0001   -0.0007    0.0042
          14    0.0036    0.0033   -0.0147    0.4991   -0.0505   -0.0004   -0.0005   -0.0001
          15    0.0153    0.0116    0.0037   -0.1211   -0.2094    0.0001   -0.0019   -0.0009
          16    0.3747   -0.1474   -0.2541   -0.0277   -0.0071    0.1792   -0.1875    0.1802
          17   -0.0898   -0.3033   -0.2558    0.0695    0.0176    0.2066   -0.2084    0.2023
          18    0.0883   -0.2628   -0.2842    0.0242    0.0057   -0.3680    0.3703   -0.4299
          19    0.2756   -0.1888   -0.2710   -0.0183   -0.0122   -0.1801    0.1827    0.1620
          20   -0.0542   -0.2811   -0.2386    0.0190    0.0111   -0.2529    0.2422    0.2257
          21   -0.0568    0.2857    0.2894   -0.0195   -0.0018   -0.3910    0.3733    0.4057
          22    0.2763   -0.1972    0.2663    0.0184   -0.0120    0.1770    0.1847    0.1540
          23    0.0223    0.3898   -0.3335    0.0256   -0.0109   -0.0452   -0.0450   -0.0142
          24   -0.0754    0.1296   -0.1446    0.0086    0.0035    0.4568    0.4486    0.4422
          25    0.3744   -0.1543    0.2493    0.0280   -0.0070   -0.1768   -0.1903    0.1708
          26    0.1204    0.1518   -0.0931    0.0506   -0.0131    0.3476    0.3603   -0.3574
          27    0.0372   -0.3827    0.3590   -0.0531    0.0133    0.2295    0.2374   -0.2744
          28    0.0318    0.0218    0.0233   -0.0347   -0.0770   -0.0140    0.0123   -0.0047
          29    0.0074    0.0291    0.0352    0.1486    0.0312    0.0048   -0.0041    0.0007
          30   -0.0365   -0.0076   -0.0029    0.0988    0.0667    0.0095   -0.0089    0.0016
          31    0.0318    0.0226   -0.0226    0.0346   -0.0768    0.0138    0.0125   -0.0037
          32   -0.0233   -0.0303    0.0318    0.0867    0.0028   -0.0001   -0.0005    0.0002
          33   -0.0289    0.0070   -0.0134   -0.1559    0.0739   -0.0106   -0.0100    0.0011


   Root No.      25        26        27

                25 A      26 A      27 A   

                3075.5    3140.2    3143.3
  
           1    0.0876    0.0000   -0.0062
           2    0.1169   -0.0003   -0.0068
           3   -0.0127    0.0047    0.0066
           4   -0.0925    0.0001    0.0062
           5    0.1152    0.0023   -0.0092
           6   -0.0450    0.0037   -0.0028
           7   -0.0032   -0.1667   -0.1732
           8    0.0053    0.0736    0.0734
           9    0.0028    0.0952    0.0958
          10    0.0032   -0.1672    0.1729
          11    0.0036   -0.0219    0.0213
          12   -0.0050    0.1181   -0.1185
          13    0.0001    0.0246    0.0001
          14   -0.0054   -0.0017    0.0216
          15    0.0013   -0.0070   -0.0052
          16   -0.1789    0.0043    0.0087
          17   -0.1961    0.0090    0.0143
          18    0.4166   -0.0108   -0.0230
          19   -0.1517   -0.0033    0.0008
          20   -0.2081   -0.0050    0.0002
          21   -0.3771   -0.0054    0.0038
          22    0.1596   -0.0032   -0.0008
          23   -0.0130    0.0019   -0.0016
          24    0.4543   -0.0074   -0.0035
          25    0.1877    0.0042   -0.0087
          26   -0.3833   -0.0129    0.0232
          27   -0.2944   -0.0055    0.0139
          28    0.0195    0.5323    0.5317
          29   -0.0093   -0.2779   -0.2776
          30   -0.0107   -0.3091   -0.3090
          31   -0.0195    0.5331   -0.5305
          32   -0.0034    0.1056   -0.1050
          33    0.0137   -0.4032    0.4012


          DESCRIPTION OF VIBRATIONS


 VIBRATION    1    1A       ATOM PAIR        ENERGY CONTRIBUTION    RADIAL
 FREQ.       262.26        C  1 --  C  2          +15.9% (205.0%)     0.4%
 T-DIPOLE    0.2139        C  1 --  C  3          +10.6% (167.0%)     0.2%
 TRAVEL      0.0801        C  2 --  C  4          +10.5% (166.8%)     0.2%
 RED. MASS   0.5655        C  2 --  H  9          +10.0% (162.3%)    65.9%
 EFF. MASS  40.0501

 VIBRATION    2    2A       ATOM PAIR        ENERGY CONTRIBUTION    RADIAL
 FREQ.       424.20        C  3 --  C  5          +18.0% ( 88.4%)     0.1%
 T-DIPOLE    0.6465        C  4 --  C  5          +18.0% ( 88.3%)     0.1%
 TRAVEL      0.1143        C  1 --  C  5           +9.3% ( 63.6%)     0.0%
 RED. MASS   2.1948        C  2 --  C  5           +9.3% ( 63.6%)     0.0%
 EFF. MASS  12.1768

 VIBRATION    3    3A       ATOM PAIR        ENERGY CONTRIBUTION    RADIAL
 FREQ.       659.28        C  3 --  C  4          +15.5% (118.1%)    95.3%
 T-DIPOLE    2.2397        C  1 --  C  5          +13.5% (110.3%)    75.4%
 TRAVEL      0.0853        C  2 --  C  5          +13.2% (109.1%)    70.4%
 RED. MASS   3.5586        C  3 --  C  5          +12.7% (106.7%)     1.5%
 EFF. MASS  14.0644        C  4 --  C  5          +12.2% (104.6%)     1.6%

 VIBRATION    4    4A       ATOM PAIR        ENERGY CONTRIBUTION    RADIAL
 FREQ.       665.18        C  1 --  C  2          +10.2% ( 80.4%)     0.2%
 T-DIPOLE    0.1974        C  2 --  C  4           +9.0% ( 75.6%)     1.8%
 TRAVEL      0.1006        C  1 --  H  7           +8.8% ( 75.0%)    55.1%
 RED. MASS   0.6605        C  2 --  H  8           +8.8% ( 74.9%)    59.2%
 EFF. MASS  10.0250

 VIBRATION    5    5A       ATOM PAIR        ENERGY CONTRIBUTION    RADIAL
 FREQ.       805.20        C  1 --  C  2          +10.3% ( 67.3%)     0.0%
 T-DIPOLE    0.4882        C  1 --  C  3           +8.6% ( 61.7%)     7.3%
 TRAVEL      0.1011        C  2 --  C  4           +8.6% ( 61.4%)     7.7%
 RED. MASS   0.7393        C  3 --  C  4           +8.0% ( 59.4%)     0.0%
 EFF. MASS   8.1927

 VIBRATION    6    6A       ATOM PAIR        ENERGY CONTRIBUTION    RADIAL
 FREQ.       818.47        C  3 --  H 10          +17.2% ( 61.4%)     2.6%
 T-DIPOLE    0.1101        C  4 --  H 11          +16.3% ( 59.8%)     3.2%
 TRAVEL      0.1527        C  3 --  C  4           +9.2% ( 44.9%)    30.3%
 RED. MASS   0.3003        C  1 --  H  6           +6.7% ( 38.3%)     2.1%
 EFF. MASS   3.5345

 VIBRATION    7    7A       ATOM PAIR        ENERGY CONTRIBUTION    RADIAL
 FREQ.       889.80        C  1 --  H  7          +11.8% ( 50.3%)     4.3%
 T-DIPOLE    0.5512        C  2 --  H  8          +11.8% ( 50.3%)     4.3%
 TRAVEL      0.1247        C  4 --  H 11           +9.7% ( 45.5%)     1.4%
 RED. MASS   0.4183        C  3 --  H 10           +9.6% ( 45.3%)     1.2%
 EFF. MASS   4.8699

 VIBRATION    8    8A       ATOM PAIR        ENERGY CONTRIBUTION    RADIAL
 FREQ.       962.51        C  1 --  C  2          +19.9% ( 84.8%)    86.2%
 T-DIPOLE    0.2455        C  1 --  C  3           +9.5% ( 58.7%)     0.2%
 TRAVEL      0.0903        C  2 --  C  4           +9.5% ( 58.6%)     0.2%
 RED. MASS   1.4456        C  1 --  H  7           +9.2% ( 57.7%)     0.7%
 EFF. MASS   8.5994

 VIBRATION    9    9A       ATOM PAIR        ENERGY CONTRIBUTION    RADIAL
 FREQ.       985.06        C  1 --  C  2          +15.5% ( 58.6%)    57.4%
 T-DIPOLE    0.1570        C  1 --  H  6          +12.5% ( 52.6%)     2.1%
 TRAVEL      0.1066        C  2 --  H  9          +12.4% ( 52.5%)     2.1%
 RED. MASS   0.6903        C  1 --  C  3           +9.0% ( 44.5%)     2.3%
 EFF. MASS   6.0183

 VIBRATION   10   10A       ATOM PAIR        ENERGY CONTRIBUTION    RADIAL
 FREQ.      1014.36        C  2 --  H  9          +13.5% ( 52.7%)     7.8%
 T-DIPOLE    0.1558        C  1 --  H  6          +13.5% ( 52.7%)     7.8%
 TRAVEL      0.1162        C  1 --  C  3          +10.2% ( 45.9%)    98.2%
 RED. MASS   0.3546        C  2 --  C  4          +10.2% ( 45.8%)    98.2%
 EFF. MASS   4.9208

 VIBRATION   11   11A       ATOM PAIR        ENERGY CONTRIBUTION    RADIAL
 FREQ.      1056.01        C  1 --  H  7          +15.2% ( 48.8%)     4.2%
 T-DIPOLE    0.1938        C  2 --  H  8          +13.6% ( 46.2%)     6.4%
 TRAVEL      0.1295        C  3 --  H 10           +9.0% ( 37.7%)    13.0%
 RED. MASS   0.3147        C  4 --  H 11           +8.4% ( 36.4%)    13.0%
 EFF. MASS   3.8071

 VIBRATION   12   12A       ATOM PAIR        ENERGY CONTRIBUTION    RADIAL
 FREQ.      1061.34        C  2 --  H  8          +22.0% ( 55.7%)     5.3%
 T-DIPOLE    0.2671        C  1 --  H  7          +20.4% ( 53.6%)     5.5%
 TRAVEL      0.1396        C  2 --  C  4           +7.0% ( 31.5%)    27.1%
 RED. MASS   0.3307        C  1 --  C  3           +6.5% ( 30.3%)    22.8%
 EFF. MASS   3.2601

 VIBRATION   13   13A       ATOM PAIR        ENERGY CONTRIBUTION    RADIAL
 FREQ.      1092.74        C  2 --  H  9          +15.1% ( 52.1%)     5.3%
 T-DIPOLE    0.1136        C  1 --  H  6          +15.1% ( 52.1%)     5.3%
 TRAVEL      0.1263        C  1 --  C  2          +13.5% ( 49.3%)     0.0%
 RED. MASS   0.4062        C  2 --  H  8           +8.1% ( 38.2%)    24.9%
 EFF. MASS   3.8700

 VIBRATION   14   14A       ATOM PAIR        ENERGY CONTRIBUTION    RADIAL
 FREQ.      1161.72        C  4 --  H 11          +30.0% ( 72.3%)     1.4%
 T-DIPOLE    0.1428        C  3 --  H 10          +12.1% ( 46.0%)     0.0%
 TRAVEL      0.1241        C  2 --  C  4          +11.4% ( 44.6%)    74.7%
 RED. MASS   0.5760        C  3 --  C  4           +9.6% ( 41.0%)     3.5%
 EFF. MASS   3.7666

 VIBRATION   15   15A       ATOM PAIR        ENERGY CONTRIBUTION    RADIAL
 FREQ.      1162.17        C  3 --  H 10          +17.1% ( 62.5%)     5.3%
 T-DIPOLE    0.2394        C  1 --  C  3          +13.5% ( 55.6%)    84.9%
 TRAVEL      0.0926        C  3 --  C  4          +10.5% ( 48.8%)    72.1%
 RED. MASS   0.8259        C  1 --  C  2           +7.7% ( 42.0%)    99.0%
 EFF. MASS   6.7626

 VIBRATION   16   16A       ATOM PAIR        ENERGY CONTRIBUTION    RADIAL
 FREQ.      1216.10        C  2 --  H  8          +11.5% ( 52.7%)     0.6%
 T-DIPOLE    0.6566        C  1 --  H  7          +11.4% ( 52.5%)     0.6%
 TRAVEL      0.0895        C  1 --  C  2          +11.1% ( 51.8%)    87.8%
 RED. MASS   1.1606        C  2 --  H  9          +10.5% ( 50.4%)     0.0%
 EFF. MASS   6.9169        C  1 --  H  6          +10.5% ( 50.4%)     0.0%
                           C  1 --  C  3          +10.5% ( 50.4%)    90.8%
                           C  2 --  C  4          +10.5% ( 50.2%)    90.7%

 VIBRATION   17   17A       ATOM PAIR        ENERGY CONTRIBUTION    RADIAL
 FREQ.      1304.53        C  1 --  H  6          +13.5% ( 52.3%)     0.7%
 T-DIPOLE    0.1864        C  2 --  H  9          +13.4% ( 52.3%)     0.7%
 TRAVEL      0.0918        C  1 --  C  2          +11.7% ( 48.8%)     0.0%
 RED. MASS   1.1465        C  1 --  C  3          +10.3% ( 45.8%)    93.4%
 EFF. MASS   6.1293        C  2 --  C  4          +10.3% ( 45.8%)    93.4%

 VIBRATION   18   18A       ATOM PAIR        ENERGY CONTRIBUTION    RADIAL
 FREQ.      1387.36        C  2 --  H  8          +16.8% ( 47.2%)     4.3%
 T-DIPOLE    0.0418        C  1 --  H  7          +16.0% ( 46.0%)     4.3%
 TRAVEL      0.1241        C  2 --  H  9          +15.6% ( 45.5%)     5.6%
 RED. MASS   0.4055        C  1 --  H  6          +14.9% ( 44.4%)     5.6%
 EFF. MASS   3.1563        C  1 --  C  2          +11.3% ( 38.8%)     0.0%

 VIBRATION   19   19A       ATOM PAIR        ENERGY CONTRIBUTION    RADIAL
 FREQ.      1398.84        C  1 --  H  7          +17.9% ( 45.4%)     4.2%
 T-DIPOLE    0.2107        C  1 --  H  6          +17.1% ( 44.4%)     5.2%
 TRAVEL      0.1347        C  2 --  H  8          +16.9% ( 44.1%)     4.1%
 RED. MASS   0.3171        C  2 --  H  9          +16.2% ( 43.2%)     5.2%
 EFF. MASS   2.6558

 VIBRATION   20   20A       ATOM PAIR        ENERGY CONTRIBUTION    RADIAL
 FREQ.      1558.52        C  3 --  C  4          +20.0% ( 75.6%)    99.4%
 T-DIPOLE    1.3853        C  3 --  C  5          +18.1% ( 71.9%)    80.8%
 TRAVEL      0.0611        C  4 --  C  5          +18.1% ( 71.9%)    80.8%
 RED. MASS   3.3502        C  1 --  C  3           +9.2% ( 51.2%)     1.4%
 EFF. MASS  11.5729

 VIBRATION   21   21A       ATOM PAIR        ENERGY CONTRIBUTION    RADIAL
 FREQ.      1820.73        C  4 --  C  5          +25.3% ( 83.5%)    87.3%
 T-DIPOLE    2.7355        C  3 --  C  5          +25.3% ( 83.5%)    87.3%
 TRAVEL      0.0556        C  2 --  C  5          +13.3% ( 60.4%)    11.2%
 RED. MASS   5.0859        C  1 --  C  5          +13.3% ( 60.4%)    11.2%
 EFF. MASS  11.9656

 VIBRATION   22   22A       ATOM PAIR        ENERGY CONTRIBUTION    RADIAL
 FREQ.      2996.58        C  1 --  H  7          +26.4% ( 53.7%)    96.9%
 T-DIPOLE    0.0033        C  2 --  H  8          +25.6% ( 52.9%)    96.9%
 TRAVEL      0.1204        C  1 --  H  6          +22.6% ( 49.7%)    96.2%
 RED. MASS   0.2605        C  2 --  H  9          +22.0% ( 49.0%)    96.2%
 EFF. MASS   1.5517

 VIBRATION   23   23A       ATOM PAIR        ENERGY CONTRIBUTION    RADIAL
 FREQ.      3008.80        C  2 --  H  8          +25.3% ( 52.2%)    97.0%
 T-DIPOLE    0.1664        C  1 --  H  7          +24.6% ( 51.6%)    97.0%
 TRAVEL      0.1211        C  2 --  H  9          +23.8% ( 50.7%)    96.7%
 RED. MASS   0.2590        C  1 --  H  6          +23.1% ( 50.0%)    96.7%
 EFF. MASS   1.5283

 VIBRATION   24   24A       ATOM PAIR        ENERGY CONTRIBUTION    RADIAL
 FREQ.      3074.16        C  1 --  H  6          +26.7% ( 51.1%)    97.6%
 T-DIPOLE    0.1310        C  1 --  H  7          +24.8% ( 49.3%)    97.1%
 TRAVEL      0.1307        C  2 --  H  9          +24.0% ( 48.5%)    97.6%
 RED. MASS   0.2430        C  2 --  H  8          +22.5% ( 47.0%)    97.1%
 EFF. MASS   1.2845

 VIBRATION   25   25A       ATOM PAIR        ENERGY CONTRIBUTION    RADIAL
 FREQ.      3075.49        C  2 --  H  9          +27.7% ( 52.1%)    98.0%
 T-DIPOLE    0.1744        C  1 --  H  6          +25.2% ( 49.7%)    98.0%
 TRAVEL      0.1313        C  2 --  H  8          +23.7% ( 48.2%)    97.0%
 RED. MASS   0.2433        C  1 --  H  7          +21.3% ( 45.7%)    96.9%
 EFF. MASS   1.2713

 VIBRATION   26   26A       ATOM PAIR        ENERGY CONTRIBUTION    RADIAL
 FREQ.      3140.20        C  4 --  H 11          +47.7% ( 70.8%)   100.0%
 T-DIPOLE    0.4825        C  3 --  H 10          +47.5% ( 70.6%)   100.0%
 TRAVEL      0.1185        C  3 --  C  4           +1.4% ( 12.1%)     0.0%
 RED. MASS   0.4641        C  4 --  C  5           +0.9% (  9.6%)    48.7%
 EFF. MASS   1.5300

 VIBRATION   27   27A       ATOM PAIR        ENERGY CONTRIBUTION    RADIAL
 FREQ.      3143.30        C  3 --  H 10          +47.4% ( 70.6%)   100.0%
 T-DIPOLE    0.0116        C  4 --  H 11          +47.2% ( 70.5%)    99.9%
 TRAVEL      0.1168        C  3 --  C  4           +1.8% ( 13.7%)    93.5%
 RED. MASS   0.4636        C  3 --  C  5           +0.9% (  9.5%)    56.3%
 EFF. MASS   1.5722

 SYMMETRY NUMBER FOR POINT-GROUP C1  =  1


          SYSTEM IS A GROUND STATE


    NULL



          MOLECULE IS NOT LINEAR

          THERE ARE 27 GENUINE VIBRATIONS IN THIS SYSTEM
          THIS THERMODYNAMICS CALCULATION IS LIMITED TO
          MOLECULES WHICH HAVE NO INTERNAL ROTATIONS




                    CALCULATED THERMODYNAMIC PROPERTIES
                                          *
   TEMP. (K)   PARTITION FUNCTION   H.O.F.    ENTHALPY  HEAT CAPACITY ENTROPY
                                   KCAL/MOL   CAL/MOLE    CAL/K/MOL  CAL/K/MOL


 298.00  VIB.     0.1944D+01                   944.0598     9.9348     4.4887
         ROT.     0.5070D+05                   888.2813     2.9808    24.5097
         INT.     0.9855D+05                  1832.3411    12.9157    28.9984
         TRA.     0.5196D+27                  1480.4688     4.9680    38.4818
         TOT.                      103.427    3312.8099    17.8837    67.4802

 200.00  VIB.     0.1274D+01                   258.5891     4.3047     1.7741
         ROT.     0.2788D+05                   596.1620     2.9808    23.3210
         INT.     0.3551D+05                   854.7511     7.2856    25.0951
         TRA.     0.2857D+27                   993.6033     4.9680    36.5007
         TOT.                      101.963    1848.3543    12.2536    61.5958

 210.00  VIB.     0.1318D+01                   304.0710     4.7960     1.9959
         ROT.     0.2999D+05                   625.9700     2.9808    23.4665
         INT.     0.3952D+05                   930.0410     7.7768    25.4624
         TRA.     0.3074D+27                  1043.2834     4.9680    36.7431
         TOT.                      102.088    1973.3244    12.7448    62.2054

 220.00  VIB.     0.1365D+01                   354.5931     5.3125     2.2308
         ROT.     0.3216D+05                   655.7781     2.9808    23.6051
         INT.     0.4392D+05                  1010.3713     8.2933    25.8360
         TRA.     0.3296D+27                  1092.9636     4.9680    36.9742
         TOT.                      102.218    2103.3348    13.2613    62.8101

 230.00  VIB.     0.1418D+01                   410.3972     5.8520     2.4788
         ROT.     0.3438D+05                   685.5862     2.9808    23.7376
         INT.     0.4876D+05                  1095.9835     8.8328    26.2164
         TRA.     0.3523D+27                  1142.6437     4.9680    37.1950
         TOT.                      102.353    2238.6272    13.8008    63.4115

 240.00  VIB.     0.1476D+01                   471.7022     6.4122     2.7396
         ROT.     0.3665D+05                   715.3943     2.9808    23.8645
         INT.     0.5410D+05                  1187.0965     9.3930    26.6041
         TRA.     0.3755D+27                  1192.3239     4.9680    37.4065
         TOT.                      102.494    2379.4204    14.3610    64.0106

 250.00  VIB.     0.1540D+01                   538.7016     6.9905     3.0131
         ROT.     0.3896D+05                   745.2024     2.9808    23.9862
         INT.     0.6001D+05                  1283.9040     9.9713    26.9992
         TRA.     0.3992D+27                  1242.0041     4.9680    37.6093
         TOT.                      102.640    2525.9081    14.9393    64.6085

 260.00  VIB.     0.1610D+01                   611.5630     7.5841     3.2988
         ROT.     0.4132D+05                   775.0105     2.9808    24.1031
         INT.     0.6653D+05                  1386.5735    10.5650    27.4018
         TRA.     0.4234D+27                  1291.6842     4.9680    37.8041
         TOT.                      102.793    2678.2577    15.5330    65.2059

 270.00  VIB.     0.1687D+01                   690.4271     8.1906     3.5963
         ROT.     0.4373D+05                   804.8186     2.9808    24.2156
         INT.     0.7377D+05                  1495.2457    11.1714    27.8119
         TRA.     0.4481D+27                  1341.3644     4.9680    37.9916
         TOT.                      102.951    2836.6101    16.1394    65.8035

 280.00  VIB.     0.1771D+01                   775.4085     8.8072     3.9053
         ROT.     0.4618D+05                   834.6267     2.9808    24.3240
         INT.     0.8179D+05                  1610.0352    11.7880    28.2293
         TRA.     0.4732D+27                  1391.0445     4.9680    38.1723
         TOT.                      103.116    3001.0798    16.7560    66.4016

 290.00  VIB.     0.1864D+01                   866.5964     9.4315     4.2252
         ROT.     0.4868D+05                   864.4348     2.9808    24.4286
         INT.     0.9071D+05                  1731.0312    12.4123    28.6538
         TRA.     0.4988D+27                  1440.7247     4.9680    38.3466
         TOT.                      103.286    3171.7559    17.3803    67.0004

 300.00  VIB.     0.1965D+01                   964.0557    10.0611     4.5556
         ROT.     0.5121D+05                   894.2429     2.9808    24.5296
         INT.     0.1006D+06                  1858.2986    13.0419    29.0852
         TRA.     0.5248D+27                  1490.4049     4.9680    38.5150
         TOT.                      103.463    3348.7035    18.0099    67.6003

 310.00  VIB.     0.2076D+01                  1067.8286    10.6938     4.8958
         ROT.     0.5380D+05                   924.0510     2.9808    24.6274
         INT.     0.1117D+06                  1991.8796    13.6747    29.5232
         TRA.     0.5513D+27                  1540.0850     4.9680    38.6779
         TOT.                      103.646    3531.9646    18.6427    68.2011

 320.00  VIB.     0.2197D+01                  1177.9364    11.3278     5.2453
         ROT.     0.5642D+05                   953.8591     2.9808    24.7220
         INT.     0.1240D+06                  2131.7955    14.3086    29.9673
         TRA.     0.5782D+27                  1589.7652     4.9680    38.8357
         TOT.                      103.836    3721.5607    19.2766    68.8030

 330.00  VIB.     0.2330D+01                  1294.3813    11.9610     5.6036
         ROT.     0.5909D+05                   983.6672     2.9808    24.8137
         INT.     0.1377D+06                  2278.0485    14.9418    30.4173
         TRA.     0.6055D+27                  1639.4454     4.9680    38.9885
         TOT.                      104.032    3917.4939    19.9098    69.4059

 340.00  VIB.     0.2476D+01                  1417.1481    12.5919     5.9700
         ROT.     0.6179D+05                  1013.4753     2.9808    24.9027
         INT.     0.1530D+06                  2430.6234    15.5727    30.8728
         TRA.     0.6332D+27                  1689.1255     4.9680    39.1369
         TOT.                      104.234    4119.7490    20.5407    70.0096

 350.00  VIB.     0.2636D+01                  1546.2063    13.2190     6.3441
         ROT.     0.6454D+05                  1043.2834     2.9808    24.9891
         INT.     0.1701D+06                  2589.4897    16.1998    31.3332
         TRA.     0.6613D+27                  1738.8057     4.9680    39.2809
         TOT.                      104.443    4328.2954    21.1678    70.6141

 360.00  VIB.     0.2812D+01                  1681.5118    13.8411     6.7252
         ROT.     0.6732D+05                  1073.0915     2.9808    25.0731
         INT.     0.1893D+06                  2754.6033    16.8219    31.7983
         TRA.     0.6899D+27                  1788.4859     4.9680    39.4208
         TOT.                      104.658    4543.0891    21.7900    71.2191

 370.00  VIB.     0.3004D+01                  1823.0083    14.4571     7.1129
         ROT.     0.7015D+05                  1102.8996     2.9808    25.1548
         INT.     0.2107D+06                  2925.9079    17.4379    32.2676
         TRA.     0.7188D+27                  1838.1660     4.9680    39.5569
         TOT.                      104.879    4764.0739    22.4059    71.8246

 380.00  VIB.     0.3215D+01                  1970.6297    15.0660     7.5065
         ROT.     0.7301D+05                  1132.7077     2.9808    25.2343
         INT.     0.2347D+06                  3103.3374    18.0468    32.7408
         TRA.     0.7482D+27                  1887.8462     4.9680    39.6894
         TOT.                      105.106    4991.1836    23.0148    72.4302

 390.00  VIB.     0.3446D+01                  2124.3010    15.6669     7.9056
         ROT.     0.7591D+05                  1162.5158     2.9808    25.3117
         INT.     0.2616D+06                  3286.8168    18.6477    33.2173
         TRA.     0.7779D+27                  1937.5263     4.9680    39.8185
         TOT.                      105.339    5224.3432    23.6158    73.0358

 400.00  VIB.     0.3700D+01                  2283.9399    16.2594     8.3098
         ROT.     0.7885D+05                  1192.3239     2.9808    25.3872
         INT.     0.2917D+06                  3476.2638    19.2402    33.6969
         TRA.     0.8080D+27                  1987.2065     4.9680    39.9443
         TOT.                      105.578    5463.4703    24.2082    73.6412

   *: NOTE: HEATS OF FORMATION ARE RELATIVE TO THE
            ELEMENTS IN THEIR STANDARD STATE AT 298K
              (=  Standard Enthalpy of Formation).

            Hvib:  Zero-point energy is not included.
                   frequencies of less than zero cm-1 are not included.
            Hrot = (3/2)RT
            Htra = (3/2)RT + pV = (5/2)RT

            Heat capacity is Cp, not Cv

           For more information, see: HTTP://OpenMOPAC.net/Manual/thermochemistry.html


           FORCE CONSTANT IN CARTESIAN COORDINATES (Millidynes/A)

    ATOM   CHEMICAL       X               Y               Z
   NUMBER   SYMBOL  FORCE CONSTANT  FORCE CONSTANT  FORCE CONSTANT

      1       C        6.590848        8.778219        8.242306
      2       C        6.590341        8.795435        8.229833
      3       C       12.774486        7.431263        4.336281
      4       C       12.779010        6.824484        4.935219
      5       C       13.387051        6.357762        2.444791
      6       H        1.332496        1.453455        3.687934
      7       H        1.239316        1.684643        3.519037
      8       H        1.238384        0.659779        4.545376
      9       H        1.332952        3.190373        1.948971
     10       H        3.516395        1.470096        1.410061
     11       H        3.514906        0.742871        2.138407



 TOTAL CPU TIME:             0.36 SECONDS

 == MOPAC DONE ==
