 *******************************************************************************
 ** Site#: 14399           For non-commercial use only        Version 13.159M **
 *******************************************************************************
 ** Cite this work as: MOPAC2012, James J. P. Stewart, Stewart Computational  **
 ** Chemistry, Version 13.159M web: HTTP://OpenMOPAC.net  Days remaining:   6 **
 *******************************************************************************
 **                                                                           **
 **                                MOPAC2012                                  **
 **                                                                           **
 *******************************************************************************

                            PM3 CALCULATION RESULTS


 *******************************************************************************
 *  CALCULATION DONE:                                Mon Jun  2 11:06:18 2014  *
 *  PM3      - The PM3 Hamiltonian to be used
 *  PRECISE  - CRITERIA TO BE INCREASED BY 100 TIMES
 *  NOSYM    - POINT-GROUP SYMMETRY SET TO C1
 *  T=       - A TIME OF 172800.0 SECONDS REQUESTED
 *  DUMP=N   - RESTART FILE WRITTEN EVERY  7200.000 SECONDS
 *******************************************************************************
pm3  precise nosym
 InChI=1S/C11H18/c1-4-7-10-8-9(5-2)11(10)6-3/h4,6-7,9-11H,3,5,8H2,1-2H3

   ATOM   CHEMICAL          X               Y               Z
  NUMBER   SYMBOL      (ANGSTROMS)     (ANGSTROMS)     (ANGSTROMS)
 
     1       C         -1.50660000  *   0.01160000  *  -0.77440000  *
     2       C         -0.27090000  *   0.48990000  *   0.05960000  *
     3       C          0.61860000  *   0.07330000  *  -1.11420000  *
     4       C         -0.52930000  *  -0.64210000  *  -1.75020000  *
     5       C         -2.45540000  *  -0.95480000  *  -0.05540000  *
     6       C         -3.29940000  *  -0.25170000  *   1.00170000  *
     7       C          4.00630000  *  -1.11830000  *   0.33430000  *
     8       C          1.79790000  *  -0.78340000  *  -0.73320000  *
     9       C         -0.26680000  *   1.96740000  *   0.34910000  *
    10       C          2.82810000  *  -0.27680000  *  -0.04440000  *
    11       C         -0.07380000  *   2.44990000  *   1.57830000  *
    12       H         -2.06090000  *   0.84320000  *  -1.27510000  *
    13       H          0.94670000  *   0.92820000  *  -1.75530000  *
    14       H         -0.10650000  *  -0.14270000  *   0.96750000  *
    15       H         -0.70630000  *  -0.33880000  *  -2.80870000  *
    16       H         -0.49230000  *  -1.75420000  *  -1.65700000  *
    17       H         -3.13790000  *  -1.41080000  *  -0.80920000  *
    18       H         -1.89250000  *  -1.78830000  *   0.42650000  *
    19       H         -3.91120000  *   0.55990000  *   0.54590000  *
    20       H         -2.65620000  *   0.18490000  *   1.79940000  *
    21       H         -3.99200000  *  -0.98160000  *   1.47860000  *
    22       H          3.68340000  *  -1.96700000  *   0.97900000  *
    23       H          4.74450000  *  -0.50790000  *   0.90150000  *
    24       H          4.50640000  *  -1.51620000  *  -0.57770000  *
    25       H          1.82050000  *  -1.83090000  *  -1.03470000  *
    26       H         -0.42720000  *   2.66980000  *  -0.46830000  *
    27       H          2.82040000  *   0.77060000  *   0.25730000  *
    28       H          0.09050000  *   1.79230000  *   2.43040000  *
    29       H         -0.07810000  *   3.52470000  *   1.74870000  *
 


          CARTESIAN COORDINATES 

    NO.       ATOM         X         Y         Z

     1         C       -1.5066    0.0116   -0.7744
     2         C       -0.2709    0.4899    0.0596
     3         C        0.6186    0.0733   -1.1142
     4         C       -0.5293   -0.6421   -1.7502
     5         C       -2.4554   -0.9548   -0.0554
     6         C       -3.2994   -0.2517    1.0017
     7         C        4.0063   -1.1183    0.3343
     8         C        1.7979   -0.7834   -0.7332
     9         C       -0.2668    1.9674    0.3491
    10         C        2.8281   -0.2768   -0.0444
    11         C       -0.0738    2.4499    1.5783
    12         H       -2.0609    0.8432   -1.2751
    13         H        0.9467    0.9282   -1.7553
    14         H       -0.1065   -0.1427    0.9675
    15         H       -0.7063   -0.3388   -2.8087
    16         H       -0.4923   -1.7542   -1.6570
    17         H       -3.1379   -1.4108   -0.8092
    18         H       -1.8925   -1.7883    0.4265
    19         H       -3.9112    0.5599    0.5459
    20         H       -2.6562    0.1849    1.7994
    21         H       -3.9920   -0.9816    1.4786
    22         H        3.6834   -1.9670    0.9790
    23         H        4.7445   -0.5079    0.9015
    24         H        4.5064   -1.5162   -0.5777
    25         H        1.8205   -1.8309   -1.0347
    26         H       -0.4272    2.6698   -0.4683
    27         H        2.8204    0.7706    0.2573
    28         H        0.0905    1.7923    2.4304
    29         H       -0.0781    3.5247    1.7487

  H: (PM3): J. J. P. STEWART, J. COMP. CHEM. 10, 209 (1989).
  C: (PM3): J. J. P. STEWART, J. COMP. CHEM. 10, 209 (1989).

           Empirical Formula: C11 H18  =    29 atoms



      MOLECULAR POINT GROUP   :   C1  


      RHF CALCULATION, NO. OF DOUBLY OCCUPIED LEVELS =   31

      Geometry optimization using EF

          DIAGONAL MATRIX USED AS START HESSIAN

 CYCLE:     1 TIME:   0.014 TIME LEFT:  2.00D  GRAD.:   109.882 HEAT: 18.59213
 CYCLE:     2 TIME:   0.021 TIME LEFT:  2.00D  GRAD.:   120.182 HEAT: 17.63806
 CYCLE:     3 TIME:   0.021 TIME LEFT:  2.00D  GRAD.:    73.619 HEAT: 15.27707
 CYCLE:     4 TIME:   0.022 TIME LEFT:  2.00D  GRAD.:    33.833 HEAT: 14.38209
 CYCLE:     5 TIME:   0.012 TIME LEFT:  2.00D  GRAD.:    32.319 HEAT: 13.98633
 CYCLE:     6 TIME:   0.012 TIME LEFT:  2.00D  GRAD.:    50.841 HEAT: 13.88570
 CYCLE:     7 TIME:   0.021 TIME LEFT:  2.00D  GRAD.:    24.711 HEAT: 13.50010
 CYCLE:     8 TIME:   0.021 TIME LEFT:  2.00D  GRAD.:    13.973 HEAT: 13.35791
 CYCLE:     9 TIME:   0.014 TIME LEFT:  2.00D  GRAD.:    12.228 HEAT: 13.28656
 CYCLE:    10 TIME:   0.013 TIME LEFT:  2.00D  GRAD.:    18.738 HEAT: 13.26808
 CYCLE:    11 TIME:   0.011 TIME LEFT:  2.00D  GRAD.:    18.553 HEAT: 13.26158
 CYCLE:    12 TIME:   0.025 TIME LEFT:  2.00D  GRAD.:    13.413 HEAT: 13.20320
 CYCLE:    13 TIME:   0.011 TIME LEFT:  2.00D  GRAD.:    10.684 HEAT: 13.18819
 CYCLE:    14 TIME:   0.012 TIME LEFT:  2.00D  GRAD.:    11.149 HEAT: 13.17300
 CYCLE:    15 TIME:   0.012 TIME LEFT:  2.00D  GRAD.:    10.601 HEAT: 13.16643
 CYCLE:    16 TIME:   0.011 TIME LEFT:  2.00D  GRAD.:    12.695 HEAT: 13.16197
 CYCLE:    17 TIME:   0.012 TIME LEFT:  2.00D  GRAD.:    10.839 HEAT: 13.15080
 CYCLE:    18 TIME:   0.013 TIME LEFT:  2.00D  GRAD.:    11.748 HEAT: 13.14830
 CYCLE:    19 TIME:   0.014 TIME LEFT:  2.00D  GRAD.:    10.965 HEAT: 13.13424
 CYCLE:    20 TIME:   0.026 TIME LEFT:  2.00D  GRAD.:     4.644 HEAT: 13.10557
 CYCLE:    21 TIME:   0.027 TIME LEFT:  2.00D  GRAD.:     3.589 HEAT: 13.10030
 CYCLE:    22 TIME:   0.016 TIME LEFT:  2.00D  GRAD.:     3.757 HEAT: 13.09532
 CYCLE:    23 TIME:   0.012 TIME LEFT:  2.00D  GRAD.:     4.747 HEAT: 13.08491
 CYCLE:    24 TIME:   0.014 TIME LEFT:  2.00D  GRAD.:     6.289 HEAT: 13.06345
 CYCLE:    25 TIME:   0.012 TIME LEFT:  2.00D  GRAD.:     9.228 HEAT: 13.05626
 CYCLE:    26 TIME:   0.012 TIME LEFT:  2.00D  GRAD.:     6.977 HEAT: 13.03515
 CYCLE:    27 TIME:   0.011 TIME LEFT:  2.00D  GRAD.:     6.104 HEAT: 13.02174
 CYCLE:    28 TIME:   0.013 TIME LEFT:  2.00D  GRAD.:     5.357 HEAT: 13.01159
 CYCLE:    29 TIME:   0.014 TIME LEFT:  2.00D  GRAD.:     5.278 HEAT: 13.00134
 CYCLE:    30 TIME:   0.014 TIME LEFT:  2.00D  GRAD.:     4.862 HEAT: 12.99064
 CYCLE:    31 TIME:   0.012 TIME LEFT:  2.00D  GRAD.:     5.728 HEAT: 12.98282
 CYCLE:    32 TIME:   0.012 TIME LEFT:  2.00D  GRAD.:     3.320 HEAT: 12.96867
 CYCLE:    33 TIME:   0.013 TIME LEFT:  2.00D  GRAD.:     4.009 HEAT: 12.96097
 CYCLE:    34 TIME:   0.012 TIME LEFT:  2.00D  GRAD.:     3.607 HEAT: 12.94920
 CYCLE:    35 TIME:   0.011 TIME LEFT:  2.00D  GRAD.:     5.493 HEAT: 12.93165
 CYCLE:    36 TIME:   0.011 TIME LEFT:  2.00D  GRAD.:     6.065 HEAT: 12.91678
 CYCLE:    37 TIME:   0.011 TIME LEFT:  2.00D  GRAD.:     4.274 HEAT: 12.90076
 CYCLE:    38 TIME:   0.011 TIME LEFT:  2.00D  GRAD.:     3.728 HEAT: 12.88990
 CYCLE:    39 TIME:   0.012 TIME LEFT:  2.00D  GRAD.:     4.144 HEAT: 12.87817
 CYCLE:    40 TIME:   0.012 TIME LEFT:  2.00D  GRAD.:     4.894 HEAT: 12.85907
 CYCLE:    41 TIME:   0.012 TIME LEFT:  2.00D  GRAD.:     4.257 HEAT: 12.83154
 CYCLE:    42 TIME:   0.014 TIME LEFT:  2.00D  GRAD.:     5.050 HEAT: 12.79635
 CYCLE:    43 TIME:   0.012 TIME LEFT:  2.00D  GRAD.:     5.028 HEAT: 12.76395
 CYCLE:    44 TIME:   0.011 TIME LEFT:  2.00D  GRAD.:     5.608 HEAT: 12.72068
 CYCLE:    45 TIME:   0.011 TIME LEFT:  2.00D  GRAD.:     5.518 HEAT: 12.66804
 CYCLE:    46 TIME:   0.011 TIME LEFT:  2.00D  GRAD.:     4.790 HEAT: 12.63350
 CYCLE:    47 TIME:   0.011 TIME LEFT:  2.00D  GRAD.:     4.957 HEAT: 12.58850
 CYCLE:    48 TIME:   0.011 TIME LEFT:  2.00D  GRAD.:     4.774 HEAT: 12.53137
 CYCLE:    49 TIME:   0.012 TIME LEFT:  2.00D  GRAD.:     7.209 HEAT: 12.49981
 CYCLE:    50 TIME:   0.011 TIME LEFT:  2.00D  GRAD.:     6.260 HEAT: 12.45190
 CYCLE:    51 TIME:   0.011 TIME LEFT:  2.00D  GRAD.:     4.896 HEAT: 12.41417
 CYCLE:    52 TIME:   0.011 TIME LEFT:  2.00D  GRAD.:     4.383 HEAT: 12.36992
 CYCLE:    53 TIME:   0.011 TIME LEFT:  2.00D  GRAD.:     4.049 HEAT: 12.34344
 CYCLE:    54 TIME:   0.011 TIME LEFT:  2.00D  GRAD.:     3.764 HEAT: 12.31234
 CYCLE:    55 TIME:   0.012 TIME LEFT:  2.00D  GRAD.:     3.941 HEAT: 12.27239
 CYCLE:    56 TIME:   0.011 TIME LEFT:  2.00D  GRAD.:     4.953 HEAT: 12.24485
 CYCLE:    57 TIME:   0.012 TIME LEFT:  2.00D  GRAD.:     5.292 HEAT: 12.22982
 CYCLE:    58 TIME:   0.011 TIME LEFT:  2.00D  GRAD.:     2.948 HEAT: 12.20222
 CYCLE:    59 TIME:   0.011 TIME LEFT:  2.00D  GRAD.:     2.677 HEAT: 12.18059
 CYCLE:    60 TIME:   0.011 TIME LEFT:  2.00D  GRAD.:     2.884 HEAT: 12.15712
 CYCLE:    61 TIME:   0.012 TIME LEFT:  2.00D  GRAD.:     3.837 HEAT: 12.14048
 CYCLE:    62 TIME:   0.011 TIME LEFT:  2.00D  GRAD.:     3.576 HEAT: 12.12483
 CYCLE:    63 TIME:   0.012 TIME LEFT:  2.00D  GRAD.:     4.207 HEAT: 12.10266
 CYCLE:    64 TIME:   0.011 TIME LEFT:  2.00D  GRAD.:     4.159 HEAT: 12.07594
 CYCLE:    65 TIME:   0.012 TIME LEFT:  2.00D  GRAD.:     4.743 HEAT: 12.02846
 CYCLE:    66 TIME:   0.012 TIME LEFT:  2.00D  GRAD.:     7.398 HEAT: 11.96418
 CYCLE:    67 TIME:   0.011 TIME LEFT:  2.00D  GRAD.:     6.992 HEAT: 11.93129
 CYCLE:    68 TIME:   0.012 TIME LEFT:  2.00D  GRAD.:     6.219 HEAT: 11.86498
 CYCLE:    69 TIME:   0.011 TIME LEFT:  2.00D  GRAD.:     4.458 HEAT: 11.81677
 CYCLE:    70 TIME:   0.011 TIME LEFT:  2.00D  GRAD.:     4.602 HEAT: 11.77693
 CYCLE:    71 TIME:   0.011 TIME LEFT:  2.00D  GRAD.:     3.847 HEAT: 11.75313
 CYCLE:    72 TIME:   0.012 TIME LEFT:  2.00D  GRAD.:     3.430 HEAT: 11.72806
 CYCLE:    73 TIME:   0.014 TIME LEFT:  2.00D  GRAD.:     3.707 HEAT: 11.70606
 CYCLE:    74 TIME:   0.011 TIME LEFT:  2.00D  GRAD.:     4.444 HEAT: 11.67965
 CYCLE:    75 TIME:   0.011 TIME LEFT:  2.00D  GRAD.:     3.811 HEAT: 11.65960
 CYCLE:    76 TIME:   0.011 TIME LEFT:  2.00D  GRAD.:     3.603 HEAT: 11.63295
 CYCLE:    77 TIME:   0.011 TIME LEFT:  2.00D  GRAD.:     2.765 HEAT: 11.61397
 CYCLE:    78 TIME:   0.011 TIME LEFT:  2.00D  GRAD.:     2.738 HEAT: 11.59759
 CYCLE:    79 TIME:   0.012 TIME LEFT:  2.00D  GRAD.:     3.052 HEAT: 11.58004
 CYCLE:    80 TIME:   0.011 TIME LEFT:  2.00D  GRAD.:     3.603 HEAT: 11.56721
 CYCLE:    81 TIME:   0.011 TIME LEFT:  2.00D  GRAD.:     2.714 HEAT: 11.55435
 CYCLE:    82 TIME:   0.011 TIME LEFT:  2.00D  GRAD.:     1.987 HEAT: 11.54296
 CYCLE:    83 TIME:   0.011 TIME LEFT:  2.00D  GRAD.:     2.274 HEAT: 11.53182
 CYCLE:    84 TIME:   0.011 TIME LEFT:  2.00D  GRAD.:     2.203 HEAT: 11.52334
 CYCLE:    85 TIME:   0.011 TIME LEFT:  2.00D  GRAD.:     2.010 HEAT: 11.51217
 CYCLE:    86 TIME:   0.012 TIME LEFT:  2.00D  GRAD.:     1.571 HEAT: 11.50392
 CYCLE:    87 TIME:   0.011 TIME LEFT:  2.00D  GRAD.:     1.204 HEAT: 11.49834
 CYCLE:    88 TIME:   0.011 TIME LEFT:  2.00D  GRAD.:     1.112 HEAT: 11.49413
 CYCLE:    89 TIME:   0.011 TIME LEFT:  2.00D  GRAD.:     1.119 HEAT: 11.49020
 CYCLE:    90 TIME:   0.011 TIME LEFT:  2.00D  GRAD.:     1.082 HEAT: 11.48695
 CYCLE:    91 TIME:   0.011 TIME LEFT:  2.00D  GRAD.:     1.123 HEAT: 11.48406
 CYCLE:    92 TIME:   0.011 TIME LEFT:  2.00D  GRAD.:     1.165 HEAT: 11.48115
 CYCLE:    93 TIME:   0.012 TIME LEFT:  2.00D  GRAD.:     1.250 HEAT: 11.47740
 CYCLE:    94 TIME:   0.015 TIME LEFT:  2.00D  GRAD.:     1.323 HEAT: 11.47285
 CYCLE:    95 TIME:   0.011 TIME LEFT:  2.00D  GRAD.:     1.385 HEAT: 11.46755
 CYCLE:    96 TIME:   0.011 TIME LEFT:  2.00D  GRAD.:     1.322 HEAT: 11.46254
 CYCLE:    97 TIME:   0.011 TIME LEFT:  2.00D  GRAD.:     1.198 HEAT: 11.45856
 CYCLE:    98 TIME:   0.011 TIME LEFT:  2.00D  GRAD.:     1.022 HEAT: 11.45580
 CYCLE:    99 TIME:   0.016 TIME LEFT:  2.00D  GRAD.:     0.984 HEAT: 11.45349
 CYCLE:   100 TIME:   0.011 TIME LEFT:  2.00D  GRAD.:     0.864 HEAT: 11.45154
 CYCLE:   101 TIME:   0.011 TIME LEFT:  2.00D  GRAD.:     0.698 HEAT: 11.45004
 CYCLE:   102 TIME:   0.014 TIME LEFT:  2.00D  GRAD.:     0.531 HEAT: 11.44924
 CYCLE:   103 TIME:   0.011 TIME LEFT:  2.00D  GRAD.:     0.482 HEAT: 11.44868
 CYCLE:   104 TIME:   0.011 TIME LEFT:  2.00D  GRAD.:     0.542 HEAT: 11.44802
 CYCLE:   105 TIME:   0.012 TIME LEFT:  2.00D  GRAD.:     0.673 HEAT: 11.44712
 CYCLE:   106 TIME:   0.011 TIME LEFT:  2.00D  GRAD.:     0.770 HEAT: 11.44612
 CYCLE:   107 TIME:   0.011 TIME LEFT:  2.00D  GRAD.:     0.880 HEAT: 11.44483
 CYCLE:   108 TIME:   0.011 TIME LEFT:  2.00D  GRAD.:     0.868 HEAT: 11.44387
 CYCLE:   109 TIME:   0.012 TIME LEFT:  2.00D  GRAD.:     1.222 HEAT: 11.44012
 CYCLE:   110 TIME:   0.012 TIME LEFT:  2.00D  GRAD.:     1.172 HEAT: 11.43815
 CYCLE:   111 TIME:   0.012 TIME LEFT:  2.00D  GRAD.:     1.298 HEAT: 11.43364
 CYCLE:   112 TIME:   0.011 TIME LEFT:  2.00D  GRAD.:     0.904 HEAT: 11.43240
 CYCLE:   113 TIME:   0.012 TIME LEFT:  2.00D  GRAD.:     0.597 HEAT: 11.43067
 CYCLE:   114 TIME:   0.011 TIME LEFT:  2.00D  GRAD.:     0.576 HEAT: 11.42959
 CYCLE:   115 TIME:   0.012 TIME LEFT:  2.00D  GRAD.:     0.623 HEAT: 11.42827
 CYCLE:   116 TIME:   0.011 TIME LEFT:  2.00D  GRAD.:     0.558 HEAT: 11.42772
 CYCLE:   117 TIME:   0.012 TIME LEFT:  2.00D  GRAD.:     0.428 HEAT: 11.42705
 CYCLE:   118 TIME:   0.011 TIME LEFT:  2.00D  GRAD.:     0.418 HEAT: 11.42676
 CYCLE:   119 TIME:   0.011 TIME LEFT:  2.00D  GRAD.:     0.843 HEAT: 11.42586
 CYCLE:   120 TIME:   0.011 TIME LEFT:  2.00D  GRAD.:     0.785 HEAT: 11.42518
 CYCLE:   121 TIME:   0.012 TIME LEFT:  2.00D  GRAD.:     0.848 HEAT: 11.42247
 CYCLE:   122 TIME:   0.012 TIME LEFT:  2.00D  GRAD.:     0.816 HEAT: 11.42113
 CYCLE:   123 TIME:   0.012 TIME LEFT:  2.00D  GRAD.:     2.369 HEAT: 11.41734
 CYCLE:   124 TIME:   0.013 TIME LEFT:  2.00D  GRAD.:     0.865 HEAT: 11.41452
 CYCLE:   125 TIME:   0.012 TIME LEFT:  2.00D  GRAD.:     0.778 HEAT: 11.41324
 CYCLE:   126 TIME:   0.012 TIME LEFT:  2.00D  GRAD.:     0.898 HEAT: 11.40978
 CYCLE:   127 TIME:   0.012 TIME LEFT:  2.00D  GRAD.:     0.709 HEAT: 11.40882
 CYCLE:   128 TIME:   0.012 TIME LEFT:  2.00D  GRAD.:     1.140 HEAT: 11.40698
 CYCLE:   129 TIME:   0.012 TIME LEFT:  2.00D  GRAD.:     0.719 HEAT: 11.40593
 CYCLE:   130 TIME:   0.011 TIME LEFT:  2.00D  GRAD.:     0.551 HEAT: 11.40502
 CYCLE:   131 TIME:   0.011 TIME LEFT:  2.00D  GRAD.:     0.503 HEAT: 11.40415
 CYCLE:   132 TIME:   0.011 TIME LEFT:  2.00D  GRAD.:     0.395 HEAT: 11.40369
 CYCLE:   133 TIME:   0.012 TIME LEFT:  2.00D  GRAD.:     0.323 HEAT: 11.40333
 CYCLE:   134 TIME:   0.012 TIME LEFT:  2.00D  GRAD.:     0.342 HEAT: 11.40308
 CYCLE:   135 TIME:   0.011 TIME LEFT:  2.00D  GRAD.:     0.394 HEAT: 11.40280
 CYCLE:   136 TIME:   0.011 TIME LEFT:  2.00D  GRAD.:     0.527 HEAT: 11.40224
 CYCLE:   137 TIME:   0.012 TIME LEFT:  2.00D  GRAD.:     0.671 HEAT: 11.40131
 CYCLE:   138 TIME:   0.012 TIME LEFT:  2.00D  GRAD.:     0.714 HEAT: 11.39999
 CYCLE:   139 TIME:   0.011 TIME LEFT:  2.00D  GRAD.:     0.706 HEAT: 11.39926
 CYCLE:   140 TIME:   0.012 TIME LEFT:  2.00D  GRAD.:     0.639 HEAT: 11.39775
 CYCLE:   141 TIME:   0.011 TIME LEFT:  2.00D  GRAD.:     0.610 HEAT: 11.39686
 CYCLE:   142 TIME:   0.012 TIME LEFT:  2.00D  GRAD.:     0.528 HEAT: 11.39554
 CYCLE:   143 TIME:   0.012 TIME LEFT:  2.00D  GRAD.:     0.505 HEAT: 11.39492
 CYCLE:   144 TIME:   0.011 TIME LEFT:  2.00D  GRAD.:     0.364 HEAT: 11.39462
 CYCLE:   145 TIME:   0.011 TIME LEFT:  2.00D  GRAD.:     0.312 HEAT: 11.39444
 CYCLE:   146 TIME:   0.011 TIME LEFT:  2.00D  GRAD.:     0.307 HEAT: 11.39425
 CYCLE:   147 TIME:   0.011 TIME LEFT:  2.00D  GRAD.:     0.325 HEAT: 11.39407
 CYCLE:   148 TIME:   0.011 TIME LEFT:  2.00D  GRAD.:     0.381 HEAT: 11.39389
 CYCLE:   149 TIME:   0.011 TIME LEFT:  2.00D  GRAD.:     0.496 HEAT: 11.39344
 CYCLE:   150 TIME:   0.011 TIME LEFT:  2.00D  GRAD.:     0.551 HEAT: 11.39301
 CYCLE:   151 TIME:   0.012 TIME LEFT:  2.00D  GRAD.:     0.949 HEAT: 11.39154
 CYCLE:   152 TIME:   0.011 TIME LEFT:  2.00D  GRAD.:     0.762 HEAT: 11.39071
 CYCLE:   153 TIME:   0.012 TIME LEFT:  2.00D  GRAD.:     0.767 HEAT: 11.38800
 CYCLE:   154 TIME:   0.012 TIME LEFT:  2.00D  GRAD.:     0.750 HEAT: 11.38649
 CYCLE:   155 TIME:   0.012 TIME LEFT:  2.00D  GRAD.:     1.556 HEAT: 11.38410
 CYCLE:   156 TIME:   0.011 TIME LEFT:  2.00D  GRAD.:     0.830 HEAT: 11.38272
 CYCLE:   157 TIME:   0.011 TIME LEFT:  2.00D  GRAD.:     0.643 HEAT: 11.38149
 CYCLE:   158 TIME:   0.012 TIME LEFT:  2.00D  GRAD.:     0.637 HEAT: 11.38014
 CYCLE:   159 TIME:   0.012 TIME LEFT:  2.00D  GRAD.:     0.566 HEAT: 11.37952
 CYCLE:   160 TIME:   0.011 TIME LEFT:  2.00D  GRAD.:     0.432 HEAT: 11.37908
 CYCLE:   161 TIME:   0.012 TIME LEFT:  2.00D  GRAD.:     0.364 HEAT: 11.37876
 CYCLE:   162 TIME:   0.011 TIME LEFT:  2.00D  GRAD.:     0.278 HEAT: 11.37857
 CYCLE:   163 TIME:   0.011 TIME LEFT:  2.00D  GRAD.:     0.295 HEAT: 11.37838
 CYCLE:   164 TIME:   0.012 TIME LEFT:  2.00D  GRAD.:     0.228 HEAT: 11.37824
 CYCLE:   165 TIME:   0.012 TIME LEFT:  2.00D  GRAD.:     0.260 HEAT: 11.37815
 CYCLE:   166 TIME:   0.011 TIME LEFT:  2.00D  GRAD.:     0.203 HEAT: 11.37809
 CYCLE:   167 TIME:   0.011 TIME LEFT:  2.00D  GRAD.:     0.184 HEAT: 11.37803
 CYCLE:   168 TIME:   0.011 TIME LEFT:  2.00D  GRAD.:     0.566 HEAT: 11.37808
 CYCLE:   169 TIME:   0.012 TIME LEFT:  2.00D  GRAD.:     0.190 HEAT: 11.37783
 CYCLE:   170 TIME:   0.012 TIME LEFT:  2.00D  GRAD.:     0.171 HEAT: 11.37776
 CYCLE:   171 TIME:   0.011 TIME LEFT:  2.00D  GRAD.:     0.160 HEAT: 11.37768
 CYCLE:   172 TIME:   0.011 TIME LEFT:  2.00D  GRAD.:     0.165 HEAT: 11.37763
 CYCLE:   173 TIME:   0.012 TIME LEFT:  2.00D  GRAD.:     0.146 HEAT: 11.37750
 CYCLE:   174 TIME:   0.012 TIME LEFT:  2.00D  GRAD.:     0.149 HEAT: 11.37744
 CYCLE:   175 TIME:   0.011 TIME LEFT:  2.00D  GRAD.:     0.180 HEAT: 11.37738
 CYCLE:   176 TIME:   0.011 TIME LEFT:  2.00D  GRAD.:     0.223 HEAT: 11.37736
 CYCLE:   177 TIME:   0.011 TIME LEFT:  2.00D  GRAD.:     0.215 HEAT: 11.37731
 CYCLE:   178 TIME:   0.011 TIME LEFT:  2.00D  GRAD.:     0.167 HEAT: 11.37728
 CYCLE:   179 TIME:   0.012 TIME LEFT:  2.00D  GRAD.:     0.480 HEAT: 11.37711
 CYCLE:   180 TIME:   0.011 TIME LEFT:  2.00D  GRAD.:     0.223 HEAT: 11.37690
 CYCLE:   181 TIME:   0.012 TIME LEFT:  2.00D  GRAD.:     0.251 HEAT: 11.37662
 CYCLE:   182 TIME:   0.012 TIME LEFT:  2.00D  GRAD.:     0.360 HEAT: 11.37643
 CYCLE:   183 TIME:   0.011 TIME LEFT:  2.00D  GRAD.:     0.228 HEAT: 11.37635
 CYCLE:   184 TIME:   0.011 TIME LEFT:  2.00D  GRAD.:     0.130 HEAT: 11.37627
 CYCLE:   185 TIME:   0.011 TIME LEFT:  2.00D  GRAD.:     0.236 HEAT: 11.37621
 CYCLE:   186 TIME:   0.011 TIME LEFT:  2.00D  GRAD.:     0.241 HEAT: 11.37616
 CYCLE:   187 TIME:   0.012 TIME LEFT:  2.00D  GRAD.:     0.285 HEAT: 11.37596
 CYCLE:   188 TIME:   0.012 TIME LEFT:  2.00D  GRAD.:     0.227 HEAT: 11.37584
 CYCLE:   189 TIME:   0.012 TIME LEFT:  2.00D  GRAD.:     0.149 HEAT: 11.37564
 CYCLE:   190 TIME:   0.012 TIME LEFT:  2.00D  GRAD.:     0.159 HEAT: 11.37556
 CYCLE:   191 TIME:   0.011 TIME LEFT:  2.00D  GRAD.:     0.206 HEAT: 11.37548
 CYCLE:   192 TIME:   0.011 TIME LEFT:  2.00D  GRAD.:     0.274 HEAT: 11.37542
 CYCLE:   193 TIME:   0.011 TIME LEFT:  2.00D  GRAD.:     0.371 HEAT: 11.37525
 CYCLE:   194 TIME:   0.011 TIME LEFT:  2.00D  GRAD.:     0.356 HEAT: 11.37503
 CYCLE:   195 TIME:   0.012 TIME LEFT:  2.00D  GRAD.:     0.479 HEAT: 11.37461
 CYCLE:   196 TIME:   0.011 TIME LEFT:  2.00D  GRAD.:     0.274 HEAT: 11.37438
 CYCLE:   197 TIME:   0.012 TIME LEFT:  2.00D  GRAD.:     0.408 HEAT: 11.37400
 CYCLE:   198 TIME:   0.012 TIME LEFT:  2.00D  GRAD.:     0.436 HEAT: 11.37363
 CYCLE:   199 TIME:   0.012 TIME LEFT:  2.00D  GRAD.:     0.921 HEAT: 11.37252
 CYCLE:   200 TIME:   0.011 TIME LEFT:  2.00D  GRAD.:     0.601 HEAT: 11.37191
 CYCLE:   201 TIME:   0.012 TIME LEFT:  2.00D  GRAD.:     1.416 HEAT: 11.37012
 CYCLE:   202 TIME:   0.012 TIME LEFT:  2.00D  GRAD.:     0.382 HEAT: 11.36960
 CYCLE:   203 TIME:   0.017 TIME LEFT:  2.00D  GRAD.:     0.228 HEAT: 11.36900
 CYCLE:   204 TIME:   0.012 TIME LEFT:  2.00D  GRAD.:     0.996 HEAT: 11.36837
 CYCLE:   205 TIME:   0.011 TIME LEFT:  2.00D  GRAD.:     0.377 HEAT: 11.36807
 CYCLE:   206 TIME:   0.012 TIME LEFT:  2.00D  GRAD.:     0.325 HEAT: 11.36761
 CYCLE:   207 TIME:   0.012 TIME LEFT:  2.00D  GRAD.:     0.334 HEAT: 11.36727
 CYCLE:   208 TIME:   0.012 TIME LEFT:  2.00D  GRAD.:     2.341 HEAT: 11.36796
 CYCLE:   209 TIME:   0.012 TIME LEFT:  2.00D  GRAD.:     0.311 HEAT: 11.36690
 CYCLE:   210 TIME:   0.012 TIME LEFT:  2.00D  GRAD.:     0.503 HEAT: 11.36661
 CYCLE:   211 TIME:   0.012 TIME LEFT:  2.00D  GRAD.:     0.509 HEAT: 11.36626
 CYCLE:   212 TIME:   0.012 TIME LEFT:  2.00D  GRAD.:     0.668 HEAT: 11.36579
 CYCLE:   213 TIME:   0.032 TIME LEFT:  2.00D  GRAD.:     3.671 HEAT: 11.36763
 CYCLE:   214 TIME:   0.012 TIME LEFT:  2.00D  GRAD.:     2.867 HEAT: 11.36921
 CYCLE:   215 TIME:   0.011 TIME LEFT:  2.00D  GRAD.:     1.051 HEAT: 11.36722
 CYCLE:   216 TIME:   0.012 TIME LEFT:  2.00D  GRAD.:     0.720 HEAT: 11.36569
 CYCLE:   217 TIME:   0.012 TIME LEFT:  2.00D  GRAD.:     1.557 HEAT: 11.36455
 CYCLE:   218 TIME:   0.012 TIME LEFT:  2.00D  GRAD.:     0.323 HEAT: 11.36445
 CYCLE:   219 TIME:   0.012 TIME LEFT:  2.00D  GRAD.:     0.891 HEAT: 11.36370
 CYCLE:   220 TIME:   0.012 TIME LEFT:  2.00D  GRAD.:     3.733 HEAT: 11.36489
 CYCLE:   221 TIME:   0.012 TIME LEFT:  2.00D  GRAD.:     0.518 HEAT: 11.36252
 CYCLE:   222 TIME:   0.012 TIME LEFT:  2.00D  GRAD.:     1.640 HEAT: 11.36075
 CYCLE:   223 TIME:   0.022 TIME LEFT:  2.00D  GRAD.:     2.766 HEAT: 11.35935
 CYCLE:   224 TIME:   0.011 TIME LEFT:  2.00D  GRAD.:     1.345 HEAT: 11.35608
 CYCLE:   225 TIME:   0.012 TIME LEFT:  2.00D  GRAD.:     4.472 HEAT: 11.34892
 CYCLE:   226 TIME:   0.012 TIME LEFT:  2.00D  GRAD.:     2.467 HEAT: 11.33834
 CYCLE:   227 TIME:   0.039 TIME LEFT:  2.00D  GRAD.:     6.638 HEAT: 11.34761
 CYCLE:   228 TIME:   0.012 TIME LEFT:  2.00D  GRAD.:     1.503 HEAT: 11.32918
 CYCLE:   229 TIME:   0.012 TIME LEFT:  2.00D  GRAD.:     2.807 HEAT: 11.32641
 CYCLE:   230 TIME:   0.011 TIME LEFT:  2.00D  GRAD.:     1.222 HEAT: 11.32309
 CYCLE:   231 TIME:   0.012 TIME LEFT:  2.00D  GRAD.:     4.767 HEAT: 11.32454
 CYCLE:   232 TIME:   0.011 TIME LEFT:  2.00D  GRAD.:     0.651 HEAT: 11.31830
 CYCLE:   233 TIME:   0.012 TIME LEFT:  2.00D  GRAD.:     1.057 HEAT: 11.31724
 CYCLE:   234 TIME:   0.012 TIME LEFT:  2.00D  GRAD.:     0.408 HEAT: 11.31658
 CYCLE:   235 TIME:   0.012 TIME LEFT:  2.00D  GRAD.:     0.297 HEAT: 11.31638
 CYCLE:   236 TIME:   0.012 TIME LEFT:  2.00D  GRAD.:     0.165 HEAT: 11.31624
 CYCLE:   237 TIME:   0.011 TIME LEFT:  2.00D  GRAD.:     0.047 HEAT: 11.31623

     RMS GRADIENT =  0.04724  IS LESS THAN CUTOFF =  0.05000



 -------------------------------------------------------------------------------
pm3  precise nosym
 InChI=1S/C11H18/c1-4-7-10-8-9(5-2)11(10)6-3/h4,6-7,9-11H,3,5,8H2,1-2H3



     GEOMETRY OPTIMISED USING EIGENVECTOR FOLLOWING (EF).     
     SCF FIELD WAS ACHIEVED                                   


                              PM3 CALCULATION
                                                       MOPAC2012 (Version: 13.159M)
                                                       Mon Jun  2 11:06:21 2014
                                                       No. of days left =   6




          FINAL HEAT OF FORMATION =         11.31623 KCAL/MOL =      47.34710 KJ/MOL


          TOTAL ENERGY            =      -1580.54207 EV
          ELECTRONIC ENERGY       =      -9508.50181 EV  POINT GROUP:     C1  
          CORE-CORE REPULSION     =       7927.95974 EV
          COSMO AREA              =        220.87 SQUARE ANGSTROMS
          COSMO VOLUME            =        230.48 CUBIC ANGSTROMS

          GRADIENT NORM           =          0.04724
          IONIZATION POTENTIAL    =          9.699189 EV
          HOMO LUMO ENERGIES (EV) =         -9.699  0.992
          NO. OF FILLED LEVELS    =         31
          MOLECULAR WEIGHT        =        150.263

          MOLECULAR DIMENSIONS (Angstroms)

            Atom       Atom       Distance
            H    24    H    29     8.37782
            H    17    H    23     6.39707
            H    21    H    15     4.69659


          SCF CALCULATIONS        =        252
          COMPUTATION TIME        =          2.939 SECONDS




   ATOM   CHEMICAL          X               Y               Z
  NUMBER   SYMBOL      (ANGSTROMS)     (ANGSTROMS)     (ANGSTROMS)
 
     1       C         -1.42467713  *   0.09480016  *  -0.68934215  *
     2       C         -0.27679163  *   0.69946303  *   0.17516375  *
     3       C          0.76342617  *   0.21033350  *  -0.87689982  *
     4       C         -0.38008905  *  -0.43212972  *  -1.69985964  *
     5       C         -2.24349184  *  -0.98262100  *  -0.00948145  *
     6       C         -3.20301040  *  -0.40294970  *   1.00554639  *
     7       C          4.04670160  *  -1.57521755  *   0.06196061  *
     8       C          1.74426482  *  -0.76428616  *  -0.33919380  *
     9       C         -0.36276286  *   2.17145583  *   0.34477598  *
    10       C          3.06253605  *  -0.60813955  *  -0.47197469  *
    11       C         -0.85172744  *   2.73336687  *   1.44468685  *
    12       H         -2.09576968  *   0.86991530  *  -1.11698305  *
    13       H          1.27149906  *   1.04211386  *  -1.41154621  *
    14       H         -0.16495446  *   0.19618655  *   1.16104469  *
    15       H         -0.48671583  *  -0.03636882  *  -2.72036884  *
    16       H         -0.33062788  *  -1.52996505  *  -1.77793767  *
    17       H         -2.80054504  *  -1.55194860  *  -0.77972750  *
    18       H         -1.57257482  *  -1.71906573  *   0.47819658  *
    19       H         -3.93230366  *   0.27045121  *   0.53597793  *
    20       H         -2.67178313  *   0.17782533  *   1.77342493  *
    21       H         -3.76645652  *  -1.19256760  *   1.51826827  *
    22       H          3.57772548  *  -2.42763590  *   0.57134557  *
    23       H          4.71510508  *  -1.08523275  *   0.78279624  *
    24       H          4.67116969  *  -1.97577321  *  -0.74798886  *
    25       H          1.32242713  *  -1.63409659  *   0.18220819  *
    26       H         -0.01215138  *   2.78309646  *  -0.49564564  *
    27       H          3.47960057  *   0.26297895  *  -0.99307937  *
    28       H         -1.21270646  *   2.15818850  *   2.29404582  *
    29       H         -0.92828173  *   3.80891436  *   1.56964496  *

           Empirical Formula: C11 H18  =    29 atoms



      MOLECULAR POINT GROUP   :   C1  


                  EIGENVALUES  
 -41.90378 -35.66904 -33.49191 -32.00434 -27.38450 -24.84284 -23.71575 -21.11782
 -20.31742 -19.35005 -18.66827 -17.00589 -16.46586 -15.52496 -15.20278 -14.98458
 -14.64312 -14.33235 -14.27066 -13.98840 -13.27790 -13.05261 -12.59814 -12.28352
 -12.20206 -12.08903 -11.68294 -11.44031 -11.36117 -10.09618  -9.69919   0.99189
   1.16093   3.18537   3.35954   3.44274   3.58579   3.62358   3.77111   3.87513
   3.89783   3.92692   4.00128   4.02669   4.11283   4.19457   4.30390   4.32762
   4.39578   4.43562   4.50338   4.53045   4.57120   4.78709   4.87229   4.98857
   5.27043   5.33780   5.68175   5.78709   5.96340   6.04854


              NET ATOMIC CHARGES AND DIPOLE CONTRIBUTIONS

  ATOM NO.   TYPE          CHARGE      No. of ELECS.   s-Pop       p-Pop       
    1          C          -0.089499        4.0895     1.19333     2.89617
    2          C          -0.064077        4.0641     1.18546     2.87861
    3          C          -0.054452        4.0545     1.18052     2.87393
    4          C          -0.107914        4.1079     1.17698     2.93093
    5          C          -0.088863        4.0889     1.15730     2.93157
    6          C          -0.112494        4.1125     1.13868     2.97381
    7          C          -0.075137        4.0751     1.12531     2.94983
    8          C          -0.146473        4.1465     1.19520     2.95127
    9          C          -0.124813        4.1248     1.19363     2.93118
   10          C          -0.140261        4.1403     1.19385     2.94641
   11          C          -0.165182        4.1652     1.18325     2.98194
   12          H           0.077228        0.9228     0.92277
   13          H           0.076495        0.9235     0.92351
   14          H           0.085129        0.9149     0.91487
   15          H           0.056054        0.9439     0.94395
   16          H           0.063618        0.9364     0.93638
   17          H           0.049888        0.9501     0.95011
   18          H           0.050780        0.9492     0.94922
   19          H           0.039013        0.9610     0.96099
   20          H           0.041568        0.9584     0.95843
   21          H           0.037149        0.9629     0.96285
   22          H           0.040987        0.9590     0.95901
   23          H           0.044442        0.9556     0.95556
   24          H           0.043951        0.9560     0.95605
   25          H           0.103906        0.8961     0.89609
   26          H           0.098867        0.9011     0.90113
   27          H           0.098550        0.9014     0.90145
   28          H           0.082262        0.9177     0.91774
   29          H           0.079278        0.9207     0.92072
 DIPOLE           X         Y         Z       TOTAL
 POINT-CHG.     0.085    -0.207    -0.073     0.235
 HYBRID         0.002     0.021     0.025     0.033
 SUM            0.086    -0.185    -0.048     0.210


          ATOMIC ORBITAL ELECTRON POPULATIONS

    Atom      s        px        py        pz   
    1  C   1.19333   0.95189   0.97945   0.96483
    2  C   1.18546   0.95756   0.93843   0.98262
    3  C   1.18052   0.93775   0.97194   0.96425
    4  C   1.17698   0.95527   1.00536   0.97030
    5  C   1.15730   0.98026   0.96861   0.98269
    6  C   1.13868   0.98545   1.00223   0.98614
    7  C   1.12531   0.97893   0.97529   0.99560
    8  C   1.19520   0.94876   0.99245   1.01007
    9  C   1.19363   0.99302   0.95820   0.97996
   10  C   1.19385   0.95250   0.99237   1.00154
   11  C   1.18325   1.00507   1.00004   0.97683
   12  H   0.92277
   13  H   0.92351
   14  H   0.91487
   15  H   0.94395
   16  H   0.93638
   17  H   0.95011
   18  H   0.94922
   19  H   0.96099
   20  H   0.95843
   21  H   0.96285
   22  H   0.95901
   23  H   0.95556
   24  H   0.95605
   25  H   0.89609
   26  H   0.90113
   27  H   0.90145
   28  H   0.91774
   29  H   0.92072
 *******************************************************************************
 ** Site#: 14399           For non-commercial use only        Version 13.159M **
 *******************************************************************************
 ** Cite this work as: MOPAC2012, James J. P. Stewart, Stewart Computational  **
 ** Chemistry, Version 13.159M web: HTTP://OpenMOPAC.net  Days remaining:   6 **
 *******************************************************************************
 **                                                                           **
 **                                MOPAC2012                                  **
 **                                                                           **
 *******************************************************************************

                            PM3 CALCULATION RESULTS


 *******************************************************************************
 *  CALCULATION DONE:                                Mon Jun  2 11:06:21 2014  *
 *  PM3      - The PM3 Hamiltonian to be used
 *  OLDGEO   - PREVIOUS GEOMETRY TO BE USED
 *  PRECISE  - CRITERIA TO BE INCREASED BY 100 TIMES
 *  NOSYM    - POINT-GROUP SYMMETRY SET TO C1
 *  T=       - A TIME OF 172800.0 SECONDS REQUESTED
 *  DUMP=N   - RESTART FILE WRITTEN EVERY  7200.000 SECONDS
 *  THERMO   - THERMODYNAMIC QUANTITIES TO BE CALCULATED
 *******************************************************************************
oldgeo thermo nosym precise  pm3

   ATOM   CHEMICAL          X               Y               Z
  NUMBER   SYMBOL      (ANGSTROMS)     (ANGSTROMS)     (ANGSTROMS)
 
     1       C         -1.42467713  *   0.09480016  *  -0.68934215  *
     2       C         -0.27679163  *   0.69946303  *   0.17516375  *
     3       C          0.76342617  *   0.21033350  *  -0.87689982  *
     4       C         -0.38008905  *  -0.43212972  *  -1.69985964  *
     5       C         -2.24349184  *  -0.98262100  *  -0.00948145  *
     6       C         -3.20301040  *  -0.40294970  *   1.00554639  *
     7       C          4.04670160  *  -1.57521755  *   0.06196061  *
     8       C          1.74426482  *  -0.76428616  *  -0.33919380  *
     9       C         -0.36276286  *   2.17145583  *   0.34477598  *
    10       C          3.06253605  *  -0.60813955  *  -0.47197469  *
    11       C         -0.85172744  *   2.73336687  *   1.44468685  *
    12       H         -2.09576968  *   0.86991530  *  -1.11698305  *
    13       H          1.27149906  *   1.04211386  *  -1.41154621  *
    14       H         -0.16495446  *   0.19618655  *   1.16104469  *
    15       H         -0.48671583  *  -0.03636882  *  -2.72036884  *
    16       H         -0.33062788  *  -1.52996505  *  -1.77793767  *
    17       H         -2.80054504  *  -1.55194860  *  -0.77972750  *
    18       H         -1.57257482  *  -1.71906573  *   0.47819658  *
    19       H         -3.93230366  *   0.27045121  *   0.53597793  *
    20       H         -2.67178313  *   0.17782533  *   1.77342493  *
    21       H         -3.76645652  *  -1.19256760  *   1.51826827  *
    22       H          3.57772548  *  -2.42763590  *   0.57134557  *
    23       H          4.71510508  *  -1.08523275  *   0.78279624  *
    24       H          4.67116969  *  -1.97577321  *  -0.74798886  *
    25       H          1.32242713  *  -1.63409659  *   0.18220819  *
    26       H         -0.01215138  *   2.78309646  *  -0.49564564  *
    27       H          3.47960057  *   0.26297895  *  -0.99307937  *
    28       H         -1.21270646  *   2.15818850  *   2.29404582  *
    29       H         -0.92828173  *   3.80891436  *   1.56964496  *
 


          CARTESIAN COORDINATES 

    NO.       ATOM         X         Y         Z

     1         C       -1.4247    0.0948   -0.6893
     2         C       -0.2768    0.6995    0.1752
     3         C        0.7634    0.2103   -0.8769
     4         C       -0.3801   -0.4321   -1.6999
     5         C       -2.2435   -0.9826   -0.0095
     6         C       -3.2030   -0.4029    1.0055
     7         C        4.0467   -1.5752    0.0620
     8         C        1.7443   -0.7643   -0.3392
     9         C       -0.3628    2.1715    0.3448
    10         C        3.0625   -0.6081   -0.4720
    11         C       -0.8517    2.7334    1.4447
    12         H       -2.0958    0.8699   -1.1170
    13         H        1.2715    1.0421   -1.4115
    14         H       -0.1650    0.1962    1.1610
    15         H       -0.4867   -0.0364   -2.7204
    16         H       -0.3306   -1.5300   -1.7779
    17         H       -2.8005   -1.5519   -0.7797
    18         H       -1.5726   -1.7191    0.4782
    19         H       -3.9323    0.2705    0.5360
    20         H       -2.6718    0.1778    1.7734
    21         H       -3.7665   -1.1926    1.5183
    22         H        3.5777   -2.4276    0.5713
    23         H        4.7151   -1.0852    0.7828
    24         H        4.6712   -1.9758   -0.7480
    25         H        1.3224   -1.6341    0.1822
    26         H       -0.0122    2.7831   -0.4956
    27         H        3.4796    0.2630   -0.9931
    28         H       -1.2127    2.1582    2.2940
    29         H       -0.9283    3.8089    1.5696

  H: (PM3): J. J. P. STEWART, J. COMP. CHEM. 10, 209 (1989).
  C: (PM3): J. J. P. STEWART, J. COMP. CHEM. 10, 209 (1989).

           Empirical Formula: C11 H18  =    29 atoms



      MOLECULAR POINT GROUP   :   C1  


      RHF CALCULATION, NO. OF DOUBLY OCCUPIED LEVELS =   31



          HEAT OF FORMATION =      11.316229 KCALS/MOLE


          INTERNAL COORDINATE DERIVATIVES

   NUMBER  ATOM       BOND         ANGLE      DIHEDRAL

     1       C      0.001942     0.000252     0.001229
     2       C      0.010574     0.002176    -0.001156
     3       C      0.004990     0.001636    -0.002238
     4       C      0.001348     0.002650     0.002115
     5       C     -0.004637    -0.004110     0.003160
     6       C     -0.000429    -0.002016    -0.000912
     7       C     -0.006870    -0.002423    -0.001229
     8       C      0.007203     0.004252     0.000668
     9       C      0.024013    -0.005359     0.004089
    10       C     -0.006828    -0.006456     0.000449
    11       C     -0.016808     0.018992     0.002035
    12       H     -0.000016    -0.001612    -0.001223
    13       H     -0.001251    -0.000151    -0.000606
    14       H     -0.000774    -0.000338     0.000171
    15       H     -0.000037    -0.001034    -0.000945
    16       H     -0.001216     0.000600    -0.000383
    17       H     -0.000412     0.000691    -0.000940
    18       H      0.001398     0.000878     0.000739
    19       H      0.002301     0.001248    -0.002210
    20       H     -0.002397     0.001000     0.001466
    21       H      0.000577     0.001001     0.002428
    22       H     -0.001557     0.000824    -0.000362
    23       H      0.002122    -0.001209     0.001716
    24       H      0.001109     0.002606    -0.000861
    25       H      0.000211     0.001234     0.001146
    26       H     -0.011341    -0.016606    -0.005941
    27       H     -0.001509    -0.001874    -0.002354
    28       H      0.002686     0.003384    -0.002085
    29       H     -0.004392    -0.000236     0.002035


          GRADIENT NORM =   0.04765


          TIME FOR SCF CALCULATION =    0.01

          TIME FOR DERIVATIVES     =    0.01

          MOLECULAR WEIGHT =  150.26



          ROTATIONAL CONSTANTS IN CM(-1)

          A =    0.05042522   B =    0.01998270   C =    0.01695066



           PRINCIPAL MOMENTS OF INERTIA IN UNITS OF 10**(-40)*GRAM-CM**2

          A =      555.1344   B =     1400.8505   C =     1651.4266


          ORIENTATION OF MOLECULE IN FORCE CALCULATION

    NO.       ATOM         X         Y         Z

     1          C      -1.4289   -0.5923    0.4420
     2          C       0.1301   -0.5923    0.4420
     3          C       0.1229    0.9660    0.4420
     4          C      -1.4245    0.9527    0.3884
     5          C      -2.0727   -1.2627   -0.7537
     6          C      -1.9915   -2.7701   -0.6641
     7          C       2.3684    3.0947   -1.8549
     8          C       0.7652    1.5666   -0.7529
     9          C       0.7318   -1.2235    1.6430
    10          C       1.7228    2.4917   -0.6681
    11          C       1.1996   -2.4667    1.6343
    12          H      -1.8595   -0.9968    1.3827
    13          H       0.5231    1.4069    1.3807
    14          H       0.5639   -1.0233   -0.4874
    15          H      -1.9154    1.4441    1.2411
    16          H      -1.8572    1.3811   -0.5298
    17          H      -3.1307   -0.9407   -0.8211
    18          H      -1.5939   -0.9107   -1.6903
    19          H      -2.5277   -3.1538    0.2140
    20          H      -0.9493   -3.1114   -0.5833
    21          H      -2.4283   -3.2466   -1.5507
    22          H       1.9750    2.7035   -2.8026
    23          H       3.4503    2.9054   -1.8419
    24          H       2.2237    4.1835   -1.8602
    25          H       0.4064    1.2043   -1.7257
    26          H       0.7611   -0.6138    2.5545
    27          H       2.0788    2.8501    0.3061
    28          H       1.1817   -3.1007    0.7510
    29          H       1.6297   -2.9378    2.5126


    FIRST DERIVATIVES WILL BE USED IN THE CALCULATION OF SECOND DERIVATIVES

          ESTIMATED TIME TO COMPLETE CALCULATION =        5.49 SECONDS

    FOR POINT-GROUP C1   THERE ARE   1 UNIQUE SYMMETRY FUNCTIONS.

 STEP:   1 TIME =     0.05 SECS, INTEGRAL =      0.05 TIME LEFT: 172799.94
 STEP:   2 TIME =     0.05 SECS, INTEGRAL =      0.10 TIME LEFT: 172799.89
 STEP:   3 TIME =     0.05 SECS, INTEGRAL =      0.15 TIME LEFT: 172799.84
 STEP:   4 TIME =     0.05 SECS, INTEGRAL =      0.20 TIME LEFT: 172799.79
 STEP:   5 TIME =     0.05 SECS, INTEGRAL =      0.24 TIME LEFT: 172799.74
 STEP:   6 TIME =     0.05 SECS, INTEGRAL =      0.29 TIME LEFT: 172799.69
 STEP:   7 TIME =     0.05 SECS, INTEGRAL =      0.34 TIME LEFT: 172799.64
 STEP:   8 TIME =     0.05 SECS, INTEGRAL =      0.39 TIME LEFT: 172799.59
 STEP:   9 TIME =     0.05 SECS, INTEGRAL =      0.44 TIME LEFT: 172799.54
 STEP:  10 TIME =     0.05 SECS, INTEGRAL =      0.49 TIME LEFT: 172799.49
 STEP:  11 TIME =     0.05 SECS, INTEGRAL =      0.54 TIME LEFT: 172799.44
 STEP:  12 TIME =     0.05 SECS, INTEGRAL =      0.59 TIME LEFT: 172799.39
 STEP:  13 TIME =     0.05 SECS, INTEGRAL =      0.64 TIME LEFT: 172799.34
 STEP:  14 TIME =     0.05 SECS, INTEGRAL =      0.69 TIME LEFT: 172799.29
 STEP:  15 TIME =     0.05 SECS, INTEGRAL =      0.74 TIME LEFT: 172799.25
 STEP:  16 TIME =     0.05 SECS, INTEGRAL =      0.78 TIME LEFT: 172799.20
 STEP:  17 TIME =     0.05 SECS, INTEGRAL =      0.83 TIME LEFT: 172799.15
 STEP:  18 TIME =     0.05 SECS, INTEGRAL =      0.88 TIME LEFT: 172799.10
 STEP:  19 TIME =     0.05 SECS, INTEGRAL =      0.93 TIME LEFT: 172799.06
 STEP:  20 TIME =     0.05 SECS, INTEGRAL =      0.98 TIME LEFT: 172799.01
 STEP:  21 TIME =     0.05 SECS, INTEGRAL =      1.02 TIME LEFT: 172798.96
 STEP:  22 TIME =     0.05 SECS, INTEGRAL =      1.07 TIME LEFT: 172798.91
 STEP:  23 TIME =     0.05 SECS, INTEGRAL =      1.12 TIME LEFT: 172798.86
 STEP:  24 TIME =     0.05 SECS, INTEGRAL =      1.18 TIME LEFT: 172798.81
 STEP:  25 TIME =     0.05 SECS, INTEGRAL =      1.23 TIME LEFT: 172798.75
 STEP:  26 TIME =     0.06 SECS, INTEGRAL =      1.29 TIME LEFT: 172798.69
 STEP:  27 TIME =     0.05 SECS, INTEGRAL =      1.34 TIME LEFT: 172798.64
 STEP:  28 TIME =     0.05 SECS, INTEGRAL =      1.40 TIME LEFT: 172798.59
 STEP:  29 TIME =     0.05 SECS, INTEGRAL =      1.45 TIME LEFT: 172798.54
 STEP:  30 TIME =     0.05 SECS, INTEGRAL =      1.50 TIME LEFT: 172798.49
 STEP:  31 TIME =     0.05 SECS, INTEGRAL =      1.55 TIME LEFT: 172798.44
 STEP:  32 TIME =     0.05 SECS, INTEGRAL =      1.60 TIME LEFT: 172798.39
 STEP:  33 TIME =     0.05 SECS, INTEGRAL =      1.64 TIME LEFT: 172798.34
 STEP:  34 TIME =     0.05 SECS, INTEGRAL =      1.70 TIME LEFT: 172798.29
 STEP:  35 TIME =     0.05 SECS, INTEGRAL =      1.75 TIME LEFT: 172798.24
 STEP:  36 TIME =     0.05 SECS, INTEGRAL =      1.80 TIME LEFT: 172798.18
 STEP:  37 TIME =     0.05 SECS, INTEGRAL =      1.85 TIME LEFT: 172798.13
 STEP:  38 TIME =     0.05 SECS, INTEGRAL =      1.90 TIME LEFT: 172798.08
 STEP:  39 TIME =     0.05 SECS, INTEGRAL =      1.95 TIME LEFT: 172798.03
 STEP:  40 TIME =     0.06 SECS, INTEGRAL =      2.01 TIME LEFT: 172797.97
 STEP:  41 TIME =     0.05 SECS, INTEGRAL =      2.06 TIME LEFT: 172797.92
 STEP:  42 TIME =     0.05 SECS, INTEGRAL =      2.11 TIME LEFT: 172797.87
 STEP:  43 TIME =     0.05 SECS, INTEGRAL =      2.16 TIME LEFT: 172797.82
 STEP:  44 TIME =     0.05 SECS, INTEGRAL =      2.21 TIME LEFT: 172797.77
 STEP:  45 TIME =     0.05 SECS, INTEGRAL =      2.26 TIME LEFT: 172797.72
 STEP:  46 TIME =     0.05 SECS, INTEGRAL =      2.31 TIME LEFT: 172797.67
 STEP:  47 TIME =     0.05 SECS, INTEGRAL =      2.37 TIME LEFT: 172797.62
 STEP:  48 TIME =     0.05 SECS, INTEGRAL =      2.42 TIME LEFT: 172797.57
 STEP:  49 TIME =     0.05 SECS, INTEGRAL =      2.46 TIME LEFT: 172797.52
 STEP:  50 TIME =     0.05 SECS, INTEGRAL =      2.51 TIME LEFT: 172797.47
 STEP:  51 TIME =     0.06 SECS, INTEGRAL =      2.57 TIME LEFT: 172797.41
 STEP:  52 TIME =     0.06 SECS, INTEGRAL =      2.63 TIME LEFT: 172797.36
 STEP:  53 TIME =     0.05 SECS, INTEGRAL =      2.68 TIME LEFT: 172797.30
 STEP:  54 TIME =     0.05 SECS, INTEGRAL =      2.73 TIME LEFT: 172797.25
 STEP:  55 TIME =     0.05 SECS, INTEGRAL =      2.78 TIME LEFT: 172797.20
 STEP:  56 TIME =     0.05 SECS, INTEGRAL =      2.83 TIME LEFT: 172797.15
 STEP:  57 TIME =     0.05 SECS, INTEGRAL =      2.88 TIME LEFT: 172797.10
 STEP:  58 TIME =     0.05 SECS, INTEGRAL =      2.93 TIME LEFT: 172797.06
 STEP:  59 TIME =     0.05 SECS, INTEGRAL =      2.98 TIME LEFT: 172797.01
 STEP:  60 TIME =     0.05 SECS, INTEGRAL =      3.03 TIME LEFT: 172796.96
 STEP:  61 TIME =     0.05 SECS, INTEGRAL =      3.08 TIME LEFT: 172796.91
 STEP:  62 TIME =     0.05 SECS, INTEGRAL =      3.13 TIME LEFT: 172796.85
 STEP:  63 TIME =     0.05 SECS, INTEGRAL =      3.18 TIME LEFT: 172796.81
 STEP:  64 TIME =     0.05 SECS, INTEGRAL =      3.23 TIME LEFT: 172796.76
 STEP:  65 TIME =     0.05 SECS, INTEGRAL =      3.28 TIME LEFT: 172796.70
 STEP:  66 TIME =     0.05 SECS, INTEGRAL =      3.33 TIME LEFT: 172796.65
 STEP:  67 TIME =     0.05 SECS, INTEGRAL =      3.38 TIME LEFT: 172796.61
 STEP:  68 TIME =     0.05 SECS, INTEGRAL =      3.43 TIME LEFT: 172796.56
 STEP:  69 TIME =     0.05 SECS, INTEGRAL =      3.48 TIME LEFT: 172796.51
 STEP:  70 TIME =     0.05 SECS, INTEGRAL =      3.53 TIME LEFT: 172796.46
 STEP:  71 TIME =     0.05 SECS, INTEGRAL =      3.58 TIME LEFT: 172796.41
 STEP:  72 TIME =     0.05 SECS, INTEGRAL =      3.63 TIME LEFT: 172796.36
 STEP:  73 TIME =     0.05 SECS, INTEGRAL =      3.68 TIME LEFT: 172796.31
 STEP:  74 TIME =     0.05 SECS, INTEGRAL =      3.73 TIME LEFT: 172796.26
 STEP:  75 TIME =     0.05 SECS, INTEGRAL =      3.78 TIME LEFT: 172796.21
 STEP:  76 TIME =     0.05 SECS, INTEGRAL =      3.83 TIME LEFT: 172796.16
 STEP:  77 TIME =     0.05 SECS, INTEGRAL =      3.88 TIME LEFT: 172796.11
 STEP:  78 TIME =     0.05 SECS, INTEGRAL =      3.93 TIME LEFT: 172796.06
 STEP:  79 TIME =     0.05 SECS, INTEGRAL =      3.98 TIME LEFT: 172796.01
 STEP:  80 TIME =     0.05 SECS, INTEGRAL =      4.03 TIME LEFT: 172795.96
 STEP:  81 TIME =     0.05 SECS, INTEGRAL =      4.07 TIME LEFT: 172795.91
 STEP:  82 TIME =     0.05 SECS, INTEGRAL =      4.13 TIME LEFT: 172795.86
 STEP:  83 TIME =     0.05 SECS, INTEGRAL =      4.18 TIME LEFT: 172795.81
 STEP:  84 TIME =     0.05 SECS, INTEGRAL =      4.23 TIME LEFT: 172795.76
 STEP:  85 TIME =     0.05 SECS, INTEGRAL =      4.28 TIME LEFT: 172795.71
 STEP:  86 TIME =     0.05 SECS, INTEGRAL =      4.33 TIME LEFT: 172795.65
 STEP:  87 TIME =     0.05 SECS, INTEGRAL =      4.38 TIME LEFT: 172795.60

(To convert to Hartree/Bohr^2, multiply by (10^(-21) x N x a0^2)/(4.184 x 627.51) = 0.0642)


           FORCE MATRIX IN MILLIDYNES/ANGSTROM


                  C  1       C  2       C  3       C  4       C  5       C  6
 ------------------------------------------------------------------------------
     C    1  14.404445
     C    2   3.079547  14.671537
     C    3   1.782481   3.113797  14.838874
     C    4   3.523867   1.797693   3.428771  14.338381
     C    5   4.306295   0.537503   0.040130   0.546488  14.490344
     C    6   0.661426   0.031448   0.004753   0.051118   4.463023  14.357926
     C    7   0.002013   0.019019   0.143955   0.018465   0.000453   0.000455
     C    8   0.042650   0.593095   5.061042   0.596378   0.007050   0.001860
     C    9   0.580143   5.041918   0.565195   0.042348   0.032859   0.004069
     C   10   0.003497   0.032561   0.849059   0.033732   0.001391   0.001364
     C   11   0.028125   0.859696   0.045424   0.005413   0.003944   0.006775
     H   12   4.416185   0.437578   0.026531   0.427414   0.429881   0.031113
     H   13   0.026988   0.434372   4.383780   0.426311   0.001780   0.000528
     H   14   0.438846   4.362975   0.434399   0.024930   0.033001   0.008752
     H   15   0.441994   0.030482   0.443504   4.716011   0.032859   0.006034
     H   16   0.452935   0.028117   0.452338   4.651528   0.031347   0.002808
     H   17   0.431558   0.046608   0.003409   0.018856   4.458328   0.439861
     H   18   0.449495   0.024497   0.002273   0.020890   4.421421   0.437990
     H   19   0.022623   0.002396   0.000439   0.001495   0.463493   4.727852
     H   20   0.022120   0.007995   0.000623   0.002041   0.463362   4.680444
     H   21   0.052146   0.002118   0.000596   0.008601   0.450761   4.756827
     H   22   0.000253   0.000543   0.002295   0.000544   0.000216   0.000103
     H   23   0.000517   0.003116   0.019221   0.002198   0.000267   0.000176
     H   24   0.000415   0.002305   0.019273   0.003065   0.000190   0.000209
     H   25   0.001945   0.019210   0.434106   0.019430   0.003886   0.000948
     H   26   0.011454   0.438545   0.035451   0.001056   0.001273   0.000892
     H   27   0.000748   0.007950   0.084861   0.007788   0.000393   0.000390
     H   28   0.013010   0.099215   0.005543   0.001306   0.001934   0.008774
     H   29   0.017681   0.135020   0.010989   0.001705   0.001771   0.000386


                  C  7       C  8       C  9       C 10       C 11       H 12
 ------------------------------------------------------------------------------
     C    7  14.720398
     C    8   0.848603  18.327925
     C    9   0.002931   0.034781  18.266491
     C   10   5.268065  10.668903   0.003898  18.187304
     C   11   0.001598   0.007564  11.049291   0.001670  18.020013
     H   12   0.000344   0.003040   0.033262   0.000522   0.004061   4.919879
     H   13   0.001994   0.444450   0.038938   0.055267   0.003021   0.002460
     H   14   0.001194   0.039251   0.432273   0.002937   0.047626   0.028931
     H   15   0.002457   0.031846   0.004162   0.003405   0.000865   0.027075
     H   16   0.001168   0.031255   0.002396   0.003121   0.000464   0.030720
     H   17   0.000215   0.001619   0.006226   0.000383   0.001288   0.024914
     H   18   0.000232   0.003011   0.001069   0.000736   0.000641   0.042592
     H   19   0.000186   0.000298   0.000854   0.000428   0.000695   0.020326
     H   20   0.000133   0.000801   0.002444   0.000264   0.006799   0.002096
     H   21   0.000156   0.000483   0.000637   0.000314   0.000958   0.001996
     H   22   4.724611   0.041823   0.000359   0.479012   0.000488   0.000085
     H   23   4.706675   0.035578   0.000987   0.438341   0.000628   0.000114
     H   24   4.707648   0.035535   0.000461   0.438484   0.000394   0.000104
     H   25   0.081693   4.742715   0.001441   0.467939   0.000983   0.000812
     H   26   0.000282   0.002430   4.783104   0.000991   0.453604   0.004121
     H   27   0.423472   0.470455   0.001497   4.772141   0.000752   0.000177
     H   28   0.000405   0.001268   0.492417   0.000583   5.048972   0.000821
     H   29   0.000305   0.002086   0.461645   0.000576   5.112181   0.001035


                  H 13       H 14       H 15       H 16       H 17       H 18
 ------------------------------------------------------------------------------
     H   13   4.885939
     H   14   0.028099   4.869985
     H   15   0.027531   0.000954   5.332569
     H   16   0.030090   0.002527   0.549568   5.284765
     H   17   0.000574   0.003104   0.001843   0.010904   5.067431
     H   18   0.000560   0.027244   0.001251   0.017032   0.569191   5.036546
     H   19   0.000124   0.000516   0.000341   0.000465   0.025746   0.047644
     H   20   0.000272   0.012471   0.000440   0.000461   0.048354   0.022973
     H   21   0.000132   0.000583   0.001143   0.000677   0.027564   0.031230
     H   22   0.000557   0.000226   0.000089   0.000241   0.000070   0.000092
     H   23   0.000439   0.000297   0.000236   0.000152   0.000124   0.000102
     H   24   0.000413   0.000143   0.000560   0.000332   0.000077   0.000128
     H   25   0.036207   0.020569   0.001421   0.019174   0.000652   0.008279
     H   26   0.028104   0.032454   0.000686   0.000727   0.000396   0.000573
     H   27   0.029808   0.000857   0.001243   0.000739   0.000115   0.000181
     H   28   0.000793   0.025965   0.000233   0.000203   0.000642   0.000368
     H   29   0.000743   0.004721   0.000351   0.000227   0.000380   0.000095


                  H 19       H 20       H 21       H 22       H 23       H 24
 ------------------------------------------------------------------------------
     H   19   5.469599
     H   20   0.575249   5.417193
     H   21   0.570070   0.565125   5.490562
     H   22   0.000075   0.000085   0.000054   5.451307
     H   23   0.000099   0.000064   0.000102   0.564492   5.425735
     H   24   0.000133   0.000074   0.000085   0.564228   0.576442   5.426494
     H   25   0.000300   0.000399   0.000253   0.029594   0.009198   0.009146
     H   26   0.000359   0.000388   0.000168   0.000111   0.000155   0.000101
     H   27   0.000108   0.000138   0.000117   0.041005   0.023988   0.024173
     H   28   0.000521   0.009976   0.000542   0.000078   0.000124   0.000131
     H   29   0.000367   0.000550   0.000308   0.000110   0.000083   0.000153


                  H 25       H 26       H 27       H 28       H 29
 ------------------------------------------------------------------
     H   25   5.122281
     H   26   0.000830   5.151763
     H   27   0.103103   0.000825   5.149932
     H   28   0.000492   0.118895   0.000261   5.442260
     H   29   0.000240   0.079377   0.000270   0.417717   5.497763


          HEAT OF FORMATION =      11.316229 KCALS/MOLE

          ZERO POINT ENERGY     162.648 KCAL/MOL


           NORMAL COORDINATE ANALYSIS (Total motion = 1 Angstrom)


   Root No.       1         2         3         4         5         6         7         8

                 1 A       2 A       3 A       4 A       5 A       6 A       7 A       8 A   

                  43.5      57.2      91.2     108.0     132.6     153.8     172.8     206.9
  
           1   -0.0064    0.0086   -0.0101   -0.0125   -0.0036    0.0035   -0.0034   -0.0060
           2    0.0005    0.0011    0.0035    0.0116    0.0035   -0.0122    0.0058    0.0011
           3   -0.0051   -0.0057   -0.0030    0.0095   -0.0006    0.0052   -0.0060    0.0098
           4   -0.0064    0.0088   -0.0102   -0.0127   -0.0034    0.0042   -0.0035   -0.0053
           5    0.0050   -0.0102   -0.0138   -0.0033   -0.0101   -0.0084   -0.0003   -0.0057
           6   -0.0143   -0.0029    0.0061   -0.0008   -0.0012   -0.0112   -0.0017   -0.0047
           7   -0.0113    0.0200    0.0071    0.0027    0.0103    0.0004    0.0035    0.0004
           8    0.0049   -0.0103   -0.0138   -0.0036   -0.0101   -0.0084   -0.0009   -0.0063
           9   -0.0133   -0.0081    0.0005   -0.0056   -0.0081   -0.0178   -0.0007   -0.0121
          10   -0.0107    0.0200    0.0071    0.0023    0.0100    0.0006    0.0024    0.0001
          11   -0.0002    0.0005    0.0034    0.0111    0.0030   -0.0118    0.0053    0.0010
          12   -0.0274   -0.0156   -0.0043   -0.0089   -0.0101    0.0042   -0.0031    0.0102
          13   -0.0143    0.0042   -0.0097   -0.0259   -0.0110   -0.0210    0.0035   -0.0075
          14   -0.0220   -0.0037    0.0116    0.0002   -0.0001    0.0010   -0.0027    0.0058
          15    0.0121   -0.0005   -0.0079    0.0236    0.0057    0.0107   -0.0045    0.0080
          16   -0.0191   -0.0224   -0.0233    0.0445    0.0078   -0.0176    0.0117    0.0111
          17   -0.0205   -0.0039    0.0108    0.0023    0.0005   -0.0002   -0.0018    0.0063
          18    0.0446    0.0212   -0.0094   -0.0016    0.0005   -0.0230    0.0138   -0.0003
          19    0.0292   -0.0169   -0.0062    0.0055   -0.0094    0.0090   -0.0239    0.0086
          20    0.0069    0.0391    0.0005    0.0018    0.0215    0.0157    0.0265    0.0058
          21    0.0291    0.0013    0.0013    0.0023    0.0019    0.0158   -0.0034    0.0095
          22    0.0032    0.0245    0.0144    0.0121    0.0111   -0.0053   -0.0052   -0.0044
          23    0.0106   -0.0100   -0.0217   -0.0104   -0.0081   -0.0002    0.0091   -0.0086
          24   -0.0024   -0.0056    0.0006   -0.0040   -0.0069   -0.0168   -0.0005   -0.0165
          25    0.0048   -0.0007   -0.0208   -0.0120   -0.0138    0.0188   -0.0213    0.0069
          26    0.0053   -0.0113   -0.0084   -0.0081   -0.0065    0.0182   -0.0059    0.0024
          27   -0.0199    0.0014    0.0143   -0.0038    0.0063   -0.0036    0.0044   -0.0066
          28    0.0101   -0.0104   -0.0068   -0.0017    0.0005    0.0062    0.0457   -0.0092
          29    0.0019    0.0258    0.0003    0.0036    0.0025   -0.0130   -0.0436   -0.0043
          30    0.0160   -0.0018    0.0008   -0.0008   -0.0024   -0.0009   -0.0009   -0.0062
          31    0.0192   -0.0278    0.0589   -0.0076    0.0020    0.0045   -0.0033   -0.0003
          32    0.0108   -0.0216    0.0217   -0.0064   -0.0005    0.0130    0.0009   -0.0003
          33   -0.0282    0.0126    0.0029   -0.0104    0.0126    0.0313    0.0007    0.0034
          34    0.0018    0.0047   -0.0207   -0.0091   -0.0059    0.0161   -0.0078   -0.0027
          35    0.0151    0.0114    0.0082    0.0271    0.0136   -0.0156    0.0088   -0.0014
          36    0.0050   -0.0030   -0.0059    0.0178    0.0028    0.0094   -0.0065    0.0097
          37   -0.0239    0.0185    0.0094    0.0037    0.0125    0.0070    0.0060    0.0121
          38    0.0035   -0.0115   -0.0155   -0.0059   -0.0121   -0.0079   -0.0046   -0.0065
          39   -0.0070   -0.0068    0.0003   -0.0049   -0.0079   -0.0200   -0.0001   -0.0164
          40   -0.0120    0.0080   -0.0101   -0.0236   -0.0061   -0.0025    0.0004   -0.0151
          41    0.0080   -0.0171   -0.0231   -0.0088   -0.0190   -0.0175   -0.0006   -0.0126
          42   -0.0183    0.0000    0.0104   -0.0035    0.0020   -0.0094    0.0006   -0.0061
          43   -0.0209    0.0189    0.0101    0.0049    0.0130    0.0121    0.0033    0.0157
          44    0.0114    0.0098    0.0096    0.0267    0.0130   -0.0121    0.0052    0.0028
          45   -0.0401   -0.0217   -0.0062   -0.0165   -0.0142    0.0111   -0.0026    0.0183
          46   -0.0026    0.0282    0.0149    0.0094    0.0153   -0.0135    0.0043   -0.0117
          47   -0.0157   -0.0027    0.0076    0.0040    0.0010   -0.0127    0.0087    0.0038
          48   -0.0385   -0.0210   -0.0060   -0.0155   -0.0136    0.0104   -0.0025    0.0171
          49   -0.0134    0.0100   -0.0063   -0.0421   -0.0154   -0.0237    0.0026   -0.0104
          50   -0.0198    0.0135    0.0214   -0.0449   -0.0118   -0.0001   -0.0081   -0.0043
          51    0.0101   -0.0110   -0.0138    0.0652    0.0197    0.0431   -0.0136    0.0095
          52   -0.0176    0.0155   -0.0008   -0.0735   -0.0263   -0.0452    0.0074   -0.0107
          53   -0.0440   -0.0248    0.0087    0.0336    0.0076    0.0189   -0.0095    0.0176
          54    0.0023   -0.0026   -0.0045    0.0118    0.0009    0.0050   -0.0050    0.0105
          55   -0.0225   -0.0364   -0.0363    0.0992    0.0265    0.0223   -0.0066   -0.1354
          56   -0.0004    0.0173    0.0141   -0.0339   -0.0080   -0.0181    0.0045   -0.0176
          57    0.0512    0.0220   -0.0159    0.0159    0.0082   -0.0065    0.0054   -0.1004
          58   -0.0201   -0.0288   -0.0268    0.0626    0.0129   -0.0142    0.0123    0.0050
          59   -0.0214   -0.0203    0.0027    0.0456    0.0120   -0.0022    0.0064    0.0287
          60    0.0544    0.0347    0.0021   -0.0514   -0.0172   -0.0776    0.0428    0.1792
          61   -0.0180   -0.0229   -0.0173    0.0274   -0.0011   -0.0585    0.0364    0.1796
          62   -0.0380   -0.0088    0.0156   -0.0037   -0.0021    0.0185   -0.0151    0.0082
          63    0.0535    0.0241   -0.0149    0.0101    0.0063   -0.0130    0.0089   -0.0841
          64    0.0338    0.0204    0.0253    0.0474   -0.1311    0.0340   -0.0208    0.0202
          65    0.0222    0.0054   -0.0316   -0.0373    0.1553    0.0157    0.0211    0.0179
          66    0.0209   -0.0002    0.0015    0.0010   -0.0027    0.0057   -0.0025   -0.0001
          67    0.0267   -0.0079    0.0003    0.0131   -0.0334    0.0140   -0.0090    0.0077
          68   -0.0068    0.0931    0.0400    0.0479   -0.1243    0.0460    0.1121    0.0007
          69    0.0379    0.0246    0.0249    0.0358   -0.0935    0.0302   -0.0396    0.0232
          70    0.0430   -0.0710   -0.0456   -0.0404    0.1360   -0.0214   -0.1106    0.0140
          71    0.0088    0.0319   -0.0048   -0.0043    0.0410    0.0119    0.0156    0.0066
          72    0.0395   -0.0177   -0.0219   -0.0274    0.1059    0.0265    0.0297    0.0199
          73    0.0100    0.0538    0.0355    0.0303    0.0143   -0.0165   -0.0713    0.0009
          74    0.0222   -0.0359   -0.0435   -0.0259   -0.0078    0.0211    0.0773   -0.0117
          75   -0.0091   -0.0067    0.0009   -0.0049   -0.0081   -0.0200   -0.0015   -0.0168
          76    0.0006    0.0153   -0.0970   -0.0163   -0.0367    0.0437   -0.0546    0.0238
          77    0.0007   -0.0031   -0.0288   -0.0134   -0.0080    0.0466   -0.0170    0.0126
          78   -0.0167   -0.0046    0.0305   -0.0002    0.0081   -0.0230    0.0129   -0.0139
          79    0.0027   -0.0387   -0.0277   -0.0206    0.0011    0.0128    0.1233   -0.0230
          80   -0.0101    0.0503    0.0212    0.0192   -0.0040   -0.0407   -0.1224   -0.0072
          81    0.0232   -0.0005    0.0007    0.0005   -0.0001    0.0072   -0.0003    0.0003
          82    0.0238   -0.0439    0.1326   -0.0028    0.0245   -0.0191    0.0291   -0.0138
          83    0.0150   -0.0300    0.0412   -0.0013    0.0000   -0.0168    0.0115   -0.0124
          84   -0.0313    0.0189   -0.0125   -0.0143    0.0118    0.0533   -0.0076    0.0124
          85    0.0276   -0.0362    0.0563   -0.0078   -0.0061    0.0144   -0.0186    0.0080
          86    0.0113   -0.0224    0.0290   -0.0101    0.0043    0.0389   -0.0036    0.0093
          87   -0.0320    0.0162    0.0080   -0.0123    0.0192    0.0404    0.0057    0.0046


   Root No.       9        10        11        12        13        14        15        16

                 9 A      10 A      11 A      12 A      13 A      14 A      15 A      16 A   

                 243.9     262.8     301.1     360.6     396.8     446.6     460.7     475.2
  
           1    0.0057    0.0130    0.0097   -0.0073    0.0340   -0.0013   -0.0063   -0.0035
           2   -0.0017   -0.0105   -0.0065   -0.0069   -0.0017    0.0030    0.0218   -0.0214
           3   -0.0023   -0.0089    0.0237   -0.0020   -0.0175    0.0364   -0.0134    0.0024
           4    0.0047    0.0133    0.0087   -0.0109    0.0339   -0.0055   -0.0056   -0.0024
           5   -0.0026    0.0002    0.0127    0.0100    0.0150   -0.0062   -0.0043   -0.0234
           6   -0.0123   -0.0181    0.0291   -0.0084   -0.0133   -0.0221    0.0067    0.0110
           7    0.0054    0.0078   -0.0038    0.0032    0.0048    0.0017    0.0292    0.0081
           8   -0.0021    0.0041    0.0130    0.0016    0.0062   -0.0103   -0.0088   -0.0267
           9   -0.0131    0.0059   -0.0046    0.0022    0.0050   -0.0258    0.0092   -0.0214
          10    0.0040    0.0070   -0.0042   -0.0025    0.0102    0.0026    0.0351    0.0082
          11   -0.0017   -0.0099   -0.0061   -0.0004   -0.0041    0.0033    0.0297   -0.0282
          12    0.0329    0.0047   -0.0125    0.0395   -0.0124   -0.0061   -0.0013   -0.0060
          13    0.0123   -0.0232    0.0097    0.0001   -0.0093    0.0332   -0.0007   -0.0106
          14    0.0019   -0.0129   -0.0083   -0.0206    0.0101    0.0024   -0.0211    0.0134
          15   -0.0065    0.0121    0.0244   -0.0020    0.0046    0.0248    0.0010   -0.0128
          16    0.0085   -0.0092   -0.0139   -0.0042   -0.0005    0.0015   -0.0059    0.0058
          17    0.0021   -0.0142   -0.0114   -0.0249    0.0128    0.0004   -0.0283    0.0193
          18    0.0171   -0.0084   -0.0225   -0.0072    0.0069   -0.0067   -0.0118    0.0105
          19    0.0224    0.0056    0.0144   -0.0020   -0.0230   -0.0175   -0.0060   -0.0010
          20    0.0073   -0.0061    0.0160    0.0080   -0.0193   -0.0177   -0.0108   -0.0046
          21    0.0098   -0.0184   -0.0023   -0.0049    0.0211    0.0071    0.0103   -0.0034
          22   -0.0209    0.0033   -0.0033    0.0394   -0.0082    0.0037   -0.0239   -0.0008
          23    0.0062    0.0340    0.0008   -0.0274   -0.0253    0.0073    0.0094    0.0199
          24   -0.0258    0.0182   -0.0158    0.0064   -0.0076   -0.0068   -0.0052   -0.0020
          25   -0.0260   -0.0200   -0.0072   -0.0124   -0.0011   -0.0111   -0.0001   -0.0004
          26   -0.0088   -0.0058   -0.0038    0.0345    0.0167    0.0057    0.0089    0.0192
          27    0.0000   -0.0039    0.0292   -0.0012    0.0026   -0.0200    0.0111    0.0353
          28   -0.0176    0.0118    0.0009    0.0187   -0.0171    0.0020   -0.0180    0.0041
          29    0.0025    0.0273   -0.0024   -0.0042   -0.0229    0.0053   -0.0005    0.0160
          30   -0.0155    0.0046   -0.0186    0.0016    0.0149    0.0267    0.0041    0.0120
          31   -0.0061   -0.0036   -0.0066   -0.0198   -0.0127   -0.0074   -0.0017   -0.0100
          32   -0.0012    0.0007   -0.0042    0.0338    0.0134    0.0083    0.0090    0.0165
          33    0.0011    0.0122   -0.0203   -0.0240   -0.0104   -0.0016   -0.0064   -0.0188
          34    0.0103    0.0322    0.0099   -0.0013    0.0561    0.0073   -0.0250   -0.0139
          35   -0.0186   -0.0150    0.0029   -0.0250   -0.0078    0.0152    0.0474   -0.0282
          36   -0.0067   -0.0010    0.0273   -0.0065   -0.0087    0.0440   -0.0111   -0.0054
          37    0.0316    0.0050   -0.0145    0.0147   -0.0010    0.0085    0.0584    0.0106
          38   -0.0062   -0.0100    0.0354   -0.0007    0.0179   -0.0231   -0.0229   -0.0317
          39   -0.0219    0.0134   -0.0110   -0.0007    0.0018   -0.0215    0.0037   -0.0189
          40    0.0090    0.0215    0.0143   -0.0094    0.0554   -0.0311   -0.0092   -0.0002
          41   -0.0061    0.0093    0.0098    0.0052    0.0255   -0.0216   -0.0161   -0.0508
          42   -0.0080   -0.0169    0.0324   -0.0061   -0.0078   -0.0268    0.0104    0.0248
          43    0.0331    0.0021   -0.0160    0.0292   -0.0095    0.0171    0.0429    0.0205
          44   -0.0251   -0.0208    0.0114   -0.0330   -0.0114    0.0386    0.0352   -0.0190
          45    0.0636    0.0082   -0.0297    0.0773   -0.0199   -0.0186   -0.0001   -0.0045
          46   -0.0269    0.0054   -0.0026   -0.0311    0.0189   -0.0046    0.0569   -0.0010
          47    0.0222   -0.0052   -0.0346    0.0314   -0.0075   -0.0261    0.0535   -0.0344
          48    0.0592    0.0076   -0.0271    0.0701   -0.0187   -0.0169   -0.0004   -0.0049
          49    0.0146   -0.0290    0.0118   -0.0002   -0.0132    0.0416   -0.0035   -0.0101
          50    0.0057   -0.0223    0.0019   -0.0236    0.0093    0.0200   -0.0311    0.0150
          51   -0.0201    0.0563    0.0317   -0.0089    0.0567   -0.0201   -0.0007   -0.0102
          52    0.0235   -0.0622    0.0107    0.0039   -0.0523    0.0791   -0.0064   -0.0105
          53   -0.0089   -0.0007    0.0037   -0.0232    0.0152    0.0032   -0.0289    0.0180
          54   -0.0046   -0.0028    0.0289   -0.0008   -0.0147    0.0467   -0.0047   -0.0107
          55    0.0363   -0.0369   -0.0296   -0.0070   -0.0045   -0.0061   -0.0118    0.0131
          56    0.0207   -0.0354   -0.0341   -0.0287    0.0114   -0.0093   -0.0395    0.0330
          57    0.0424   -0.0348   -0.0424   -0.0107    0.0039   -0.0160   -0.0208    0.0214
          58    0.0098   -0.0081   -0.0209   -0.0062    0.0021   -0.0080   -0.0095    0.0121
          59   -0.0007   -0.0030   -0.0325   -0.0307    0.0231   -0.0316   -0.0392    0.0394
          60   -0.0110    0.0239   -0.0258   -0.0090    0.0174   -0.0219   -0.0157    0.0201
          61   -0.0232    0.0289   -0.0141   -0.0056    0.0112   -0.0161   -0.0072    0.0146
          62   -0.0128   -0.0043    0.0295   -0.0176    0.0063    0.0392   -0.0108   -0.0108
          63    0.0410   -0.0326   -0.0449   -0.0108    0.0050   -0.0194   -0.0214    0.0233
          64    0.0536   -0.0025    0.0277   -0.0192   -0.0269   -0.0381    0.0051   -0.0089
          65    0.0146   -0.0326    0.0311    0.0168   -0.0159   -0.0407   -0.0186   -0.0251
          66   -0.0058   -0.0045   -0.0136   -0.0015    0.0211    0.0242    0.0089    0.0077
          67    0.0209    0.0047    0.0149   -0.0004   -0.0229   -0.0182   -0.0080   -0.0023
          68    0.0003   -0.0118    0.0190    0.0169   -0.0175   -0.0211   -0.0219   -0.0129
          69    0.0481   -0.0211    0.0094   -0.0303    0.0163   -0.0122    0.0298   -0.0070
          70    0.0302    0.0116    0.0124   -0.0110   -0.0273   -0.0169    0.0041    0.0069
          71    0.0083   -0.0056    0.0160    0.0072   -0.0200   -0.0182   -0.0099   -0.0040
          72    0.0115   -0.0514    0.0148    0.0105    0.0283   -0.0184   -0.0030   -0.0308
          73   -0.0293   -0.0063   -0.0080    0.0782    0.0009    0.0146   -0.0633   -0.0120
          74    0.0119    0.0475   -0.0019   -0.0663   -0.0399    0.0280    0.0397    0.0589
          75   -0.0239    0.0160   -0.0127    0.0066   -0.0051   -0.0187   -0.0016   -0.0125
          76   -0.0803   -0.0745   -0.0320   -0.0076   -0.0436   -0.0434    0.0287    0.0204
          77   -0.0235   -0.0148   -0.0348    0.0365    0.0017    0.0075    0.0162    0.0222
          78    0.0116    0.0043    0.0496   -0.0033    0.0135   -0.0198    0.0050    0.0310
          79   -0.0299    0.0300   -0.0020   -0.0045   -0.0345    0.0042   -0.0009    0.0232
          80   -0.0092    0.0340   -0.0108    0.0282   -0.0234    0.0011   -0.0285    0.0025
          81   -0.0059   -0.0051   -0.0138   -0.0019    0.0213    0.0264    0.0083    0.0093
          82    0.0463    0.0512    0.0092   -0.0377    0.0234    0.0271   -0.0426   -0.0609
          83    0.0129    0.0053    0.0411    0.0515    0.0432    0.0039    0.0130    0.0583
          84   -0.0099    0.0082   -0.0537   -0.0368   -0.0328    0.0013   -0.0090   -0.0493
          85   -0.0395   -0.0426   -0.0235   -0.0107   -0.0623   -0.0381    0.0364    0.0275
          86   -0.0084    0.0027   -0.0516    0.0144   -0.0209    0.0162    0.0041   -0.0315
          87    0.0137    0.0325   -0.0378   -0.0397   -0.0051    0.0176   -0.0281   -0.0644


   Root No.      17        18        19        20        21        22        23        24

                17 A      18 A      19 A      20 A      21 A      22 A      23 A      24 A   

                 557.8     646.4     755.3     827.9     859.5     895.8     923.1     927.8
  
           1   -0.0012    0.0281   -0.0180    0.0019   -0.0007   -0.0003    0.0079    0.0084
           2   -0.0117   -0.0036   -0.0227   -0.0063   -0.0002    0.0032    0.0001    0.0023
           3    0.0153   -0.0055    0.0202    0.0033    0.0039    0.0120   -0.0088   -0.0024
           4   -0.0060    0.0020   -0.0080   -0.0207   -0.0003    0.0112   -0.0116   -0.0027
           5   -0.0121    0.0038    0.0289    0.0030   -0.0102    0.0000   -0.0094    0.0016
           6   -0.0204   -0.0091    0.0168    0.0143   -0.0077   -0.0150   -0.0023   -0.0008
           7    0.0102   -0.0006    0.0241    0.0060   -0.0041   -0.0048   -0.0003    0.0027
           8   -0.0175    0.0126    0.0279    0.0029    0.0055   -0.0008    0.0072   -0.0056
           9    0.0407   -0.0009    0.0091    0.0020    0.0000   -0.0011    0.0039    0.0015
          10    0.0107   -0.0013    0.0286    0.0036    0.0074   -0.0133   -0.0007   -0.0160
          11   -0.0152   -0.0058   -0.0246   -0.0057    0.0041    0.0179    0.0003    0.0098
          12   -0.0078   -0.0018    0.0082    0.0015    0.0086    0.0236    0.0087    0.0139
          13    0.0079    0.0145   -0.0219    0.0289    0.0017   -0.0044    0.0025   -0.0003
          14    0.0058    0.0039   -0.0020    0.0014    0.0001    0.0000    0.0006    0.0005
          15    0.0064    0.0134   -0.0154   -0.0133   -0.0059   -0.0145    0.0045   -0.0018
          16    0.0031    0.0015   -0.0032    0.0072    0.0012   -0.0009   -0.0005   -0.0025
          17    0.0084    0.0055   -0.0017    0.0014   -0.0026   -0.0088    0.0019   -0.0026
          18    0.0020    0.0027   -0.0031   -0.0024   -0.0022   -0.0083    0.0053   -0.0001
          19    0.0154   -0.0023   -0.0053   -0.0014    0.0133   -0.0027    0.0014    0.0025
          20    0.0139   -0.0023   -0.0052    0.0011   -0.0136    0.0056    0.0033    0.0039
          21   -0.0079    0.0025    0.0072    0.0009    0.0005   -0.0003    0.0011    0.0003
          22   -0.0130    0.0009    0.0024    0.0029   -0.0245    0.0042   -0.0112    0.0174
          23   -0.0087   -0.0002    0.0031   -0.0015    0.0258   -0.0037    0.0120   -0.0184
          24    0.0308   -0.0061   -0.0243   -0.0048   -0.0028   -0.0054   -0.0092   -0.0074
          25   -0.0109   -0.0588   -0.0071   -0.0018    0.0019    0.0074   -0.0167   -0.0152
          26    0.0166   -0.0209   -0.0028    0.0013   -0.0006   -0.0006   -0.0066   -0.0057
          27   -0.0172    0.0039   -0.0160   -0.0090    0.0052    0.0057    0.0054    0.0054
          28   -0.0115    0.0012    0.0015   -0.0011    0.0156   -0.0026   -0.0031    0.0066
          29   -0.0070   -0.0018    0.0010    0.0029   -0.0155    0.0048    0.0059   -0.0043
          30   -0.0293    0.0026    0.0064    0.0014    0.0008    0.0017    0.0022    0.0027
          31   -0.0108    0.0024   -0.0016   -0.0021    0.0020    0.0046   -0.0019   -0.0035
          32    0.0206    0.0031    0.0000    0.0025   -0.0015   -0.0036   -0.0012   -0.0013
          33   -0.0074   -0.0029   -0.0035   -0.0053    0.0047    0.0113    0.0031    0.0010
          34    0.0074    0.0497   -0.0272   -0.0319   -0.0011    0.0377    0.0115    0.0366
          35   -0.0094   -0.0146   -0.0410   -0.0175   -0.0032   -0.0286   -0.0157   -0.0307
          36    0.0197    0.0016    0.0069   -0.0162    0.0019    0.0141   -0.0131   -0.0036
          37    0.0076   -0.0050    0.0403    0.0134    0.0204    0.0216    0.0216    0.0271
          38   -0.0451    0.0193    0.0645    0.0097   -0.0173   -0.0222   -0.0013   -0.0180
          39    0.0536   -0.0028   -0.0153   -0.0045    0.0000   -0.0027   -0.0022   -0.0036
          40   -0.0158    0.0385   -0.0160   -0.0502   -0.0117    0.0077   -0.0091    0.0159
          41   -0.0027    0.0169    0.0550   -0.0077   -0.0199    0.0044   -0.0206    0.0059
          42   -0.0291    0.0022    0.0008    0.0047   -0.0079   -0.0180    0.0039    0.0057
          43   -0.0403   -0.0135    0.0032   -0.0043   -0.0144   -0.0541   -0.0543   -0.0618
          44    0.0204   -0.0214    0.0140   -0.0021    0.0342    0.1003   -0.0111    0.0380
          45   -0.0601   -0.0002   -0.0315   -0.0062   -0.0227   -0.0505   -0.0171   -0.0311
          46    0.0690   -0.0094    0.0609    0.0098    0.0372    0.0346    0.0422    0.0177
          47   -0.0488   -0.0125   -0.0725   -0.0179   -0.0197   -0.0568   -0.0051   -0.0304
          48   -0.0535   -0.0011   -0.0311   -0.0073   -0.0184   -0.0376   -0.0153   -0.0231
          49    0.0125    0.0135   -0.0132   -0.0076   -0.0045   -0.0122    0.0099    0.0047
          50    0.0157    0.0102    0.0111   -0.0753   -0.0165   -0.0255    0.0245    0.0165
          51   -0.0131    0.0522   -0.0710    0.1354    0.0084   -0.0113    0.0088    0.0036
          52    0.0300   -0.0122    0.0275   -0.1155   -0.0161   -0.0171    0.0045   -0.0013
          53    0.0085    0.0100   -0.0113    0.0821    0.0134    0.0186   -0.0262   -0.0175
          54    0.0177    0.0024    0.0056   -0.0521   -0.0093   -0.0129   -0.0052   -0.0091
          55    0.0031   -0.0082    0.0193   -0.0468   -0.0067   -0.0041    0.0062    0.0071
          56    0.0086    0.0033   -0.0018    0.1028    0.0212    0.0387   -0.0354   -0.0161
          57    0.0020   -0.0041    0.0105    0.0127    0.0042    0.0120   -0.0080   -0.0006
          58    0.0022   -0.0047    0.0134   -0.0320   -0.0048   -0.0034    0.0043    0.0046
          59    0.0048   -0.0129    0.0472   -0.1017   -0.0172   -0.0102    0.0113    0.0169
          60   -0.0003    0.0007    0.0038    0.0312    0.0073    0.0160   -0.0111   -0.0025
          61    0.0003   -0.0045    0.0169   -0.0391   -0.0049   -0.0001    0.0039    0.0064
          62    0.0131    0.0257   -0.0469   -0.0004   -0.0140   -0.0595    0.0292   -0.0093
          63    0.0011   -0.0053    0.0123    0.0216    0.0070    0.0193   -0.0121   -0.0008
          64    0.0487   -0.0070   -0.0188   -0.0007   -0.0365    0.0036   -0.0106   -0.0136
          65    0.0400   -0.0028   -0.0169   -0.0079    0.0337   -0.0152   -0.0163   -0.0125
          66   -0.0309    0.0045    0.0169    0.0041    0.0015    0.0052    0.0134    0.0129
          67    0.0154   -0.0019   -0.0058   -0.0029    0.0274   -0.0067    0.0004    0.0022
          68    0.0124    0.0004   -0.0063   -0.0081    0.0745   -0.0196   -0.0038    0.0017
          69    0.0286   -0.0038   -0.0052    0.0066   -0.0998    0.0185   -0.0094   -0.0183
          70    0.0215   -0.0061   -0.0083    0.0074   -0.0769    0.0233    0.0085    0.0055
          71    0.0153   -0.0028   -0.0060    0.0018   -0.0227    0.0082    0.0037    0.0041
          72    0.0181    0.0040   -0.0030   -0.0132    0.0944   -0.0368   -0.0256   -0.0217
          73   -0.0496    0.0096    0.0039   -0.0086    0.0599    0.0250    0.0978   -0.1219
          74   -0.0214   -0.0084   -0.0001    0.0114   -0.0590   -0.0137   -0.0985    0.1339
          75    0.0483   -0.0061   -0.0231   -0.0053   -0.0024   -0.0095   -0.0083   -0.0128
          76   -0.0200    0.0096   -0.0001    0.0190   -0.0061   -0.0583    0.1319    0.1180
          77    0.0304    0.0101   -0.0150    0.0006    0.0071   -0.0095    0.0569    0.0393
          78   -0.0257   -0.0190   -0.0074   -0.0089    0.0001    0.0135   -0.0420   -0.0290
          79    0.0029   -0.0073   -0.0104    0.0106   -0.1166    0.0445    0.0682   -0.0929
          80   -0.0073    0.0015   -0.0084   -0.0135    0.1190   -0.0508   -0.0841    0.0847
          81   -0.0333    0.0044    0.0141    0.0031   -0.0004    0.0048    0.0091    0.0061
          82   -0.0106   -0.1634    0.0164    0.0331   -0.0128   -0.0570    0.0841    0.0791
          83    0.0149   -0.0737   -0.0384   -0.0159    0.0208    0.0269    0.0438    0.0280
          84   -0.0031    0.0556    0.0252    0.0082   -0.0120   -0.0111   -0.0314   -0.0215
          85   -0.0110    0.2699    0.0013   -0.0330    0.0072    0.0339   -0.0124   -0.0029
[...]
 T-DIPOLE    0.0488        C  1 --  C  3           +9.7% ( 52.9%)    98.7%
 TRAVEL      0.0679        C  3 --  C  8           +8.6% ( 49.6%)    94.5%
 RED. MASS   1.4114        C  3 --  C  4           +7.4% ( 46.1%)    60.1%
 EFF. MASS   9.9386

 VIBRATION   62   62A       ATOM PAIR        ENERGY CONTRIBUTION    RADIAL
 FREQ.      1860.06        C  9 --  C 11          +44.8% ( 99.0%)    98.8%
 T-DIPOLE    0.1533        C  2 --  C  9          +16.8% ( 60.7%)    54.5%
 TRAVEL      0.0554        C  9 --  H 26          +15.4% ( 58.0%)     3.8%
 RED. MASS   5.2698        C 11 --  H 28          +10.8% ( 48.7%)    10.7%
 EFF. MASS  11.7976        C 11 --  H 29          +10.6% ( 48.2%)    13.2%

 VIBRATION   63   63A       ATOM PAIR        ENERGY CONTRIBUTION    RADIAL
 FREQ.      1891.12        C  8 --  C 10          +43.4% ( 97.3%)    96.3%
 T-DIPOLE    0.3265        C  3 --  C  8          +14.4% ( 56.0%)    55.9%
 TRAVEL      0.0550        C  7 --  C 10          +14.0% ( 55.3%)    56.3%
 RED. MASS   5.3325        C  8 --  H 25          +13.3% ( 53.9%)     3.5%
 EFF. MASS  11.7896        C 10 --  H 27          +13.0% ( 53.3%)     3.4%

 VIBRATION   64   64A       ATOM PAIR        ENERGY CONTRIBUTION    RADIAL
 FREQ.      2930.51        C  2 --  H 14          +78.5% ( 90.7%)   100.0%
 T-DIPOLE    0.0725        C  3 --  H 13          +14.3% ( 38.8%)   100.0%
 TRAVEL      0.1257        C  1 --  H 12           +2.3% ( 15.6%)    99.9%
 RED. MASS   0.6493        C  2 --  C  3           +1.1% ( 10.9%)    16.7%
 EFF. MASS   1.4569

 VIBRATION   65   65A       ATOM PAIR        ENERGY CONTRIBUTION    RADIAL
 FREQ.      2939.26        C  3 --  H 13          +78.4% ( 90.5%)   100.0%
 T-DIPOLE    0.1074        C  2 --  H 14          +11.3% ( 34.4%)    99.9%
 TRAVEL      0.1260        C  1 --  H 12           +4.7% ( 22.1%)   100.0%
 RED. MASS   0.6394        C  2 --  C  3           +0.9% (  9.9%)     9.5%
 EFF. MASS   1.4453

 VIBRATION   66   66A       ATOM PAIR        ENERGY CONTRIBUTION    RADIAL
 FREQ.      2945.06        C  5 --  H 18          +34.3% ( 60.6%)    97.1%
 T-DIPOLE    0.0856        C  1 --  H 12          +30.4% ( 57.0%)   100.0%
 TRAVEL      0.1231        C  5 --  H 17          +25.9% ( 52.6%)    95.5%
 RED. MASS   0.2956        C  2 --  H 14           +3.8% ( 20.2%)    99.9%
 EFF. MASS   1.5113

 VIBRATION   67   67A       ATOM PAIR        ENERGY CONTRIBUTION    RADIAL
 FREQ.      2954.00        C  1 --  H 12          +56.8% ( 77.3%)   100.0%
 T-DIPOLE    0.0928        C  5 --  H 18          +20.9% ( 46.9%)    97.3%
 TRAVEL      0.1243        C  5 --  H 17          +16.5% ( 41.7%)    95.8%
 RED. MASS   0.4083        C  2 --  H 14           +1.6% ( 12.8%)    99.8%
 EFF. MASS   1.4764

 VIBRATION   68   68A       ATOM PAIR        ENERGY CONTRIBUTION    RADIAL
 FREQ.      3028.49        C  5 --  H 17          +44.8% ( 66.4%)    98.5%
 T-DIPOLE    0.1318        C  5 --  H 18          +32.7% ( 56.7%)    96.7%
 TRAVEL      0.1297        C  8 --  H 25          +20.2% ( 44.6%)   100.0%
 RED. MASS   0.3488        C  5 --  C  6           +0.5% (  7.0%)    25.9%
 EFF. MASS   1.3228

 VIBRATION   69   69A       ATOM PAIR        ENERGY CONTRIBUTION    RADIAL
 FREQ.      3030.77        C  8 --  H 25          +78.0% ( 89.0%)   100.0%
 T-DIPOLE    0.2298        C  5 --  H 17          +10.2% ( 32.3%)    98.2%
 TRAVEL      0.1235        C  5 --  H 18           +8.5% ( 29.3%)    97.1%
 RED. MASS   0.6041        C  8 --  C 10           +1.1% ( 10.8%)    40.1%
 EFF. MASS   1.4578

 VIBRATION   70   70A       ATOM PAIR        ENERGY CONTRIBUTION    RADIAL
 FREQ.      3034.89        C  4 --  H 16          +59.1% ( 80.0%)    98.0%
 T-DIPOLE    0.1084        C  4 --  H 15          +36.3% ( 62.7%)    95.1%
 TRAVEL      0.1202        C  2 --  C  4           +1.1% ( 11.0%)     0.5%
 RED. MASS   0.5308        C  3 --  C  4           +1.1% ( 11.0%)     0.2%
 EFF. MASS   1.5388

 VIBRATION   71   71A       ATOM PAIR        ENERGY CONTRIBUTION    RADIAL
 FREQ.      3038.02        C 10 --  H 27          +93.5% ( 98.2%)   100.0%
 T-DIPOLE    0.2162        C  8 --  C 10           +1.5% ( 12.6%)    39.2%
 TRAVEL      0.1206        C  7 --  H 22           +1.4% ( 12.0%)    98.0%
 RED. MASS   0.8671        C  7 --  C 10           +1.4% ( 12.0%)    10.9%
 EFF. MASS   1.5271

 VIBRATION   72   72A       ATOM PAIR        ENERGY CONTRIBUTION    RADIAL
 FREQ.      3039.68        C  9 --  H 26          +96.1% ( 99.4%)   100.0%
 T-DIPOLE    0.2408        C  9 --  C 11           +1.4% ( 12.1%)    30.7%
 TRAVEL      0.1214        C  2 --  C  9           +1.3% ( 11.8%)    15.5%
 RED. MASS   0.9097        C 11 --  H 29           +0.9% (  9.4%)    95.2%
 EFF. MASS   1.5042

 VIBRATION   73   73A       ATOM PAIR        ENERGY CONTRIBUTION    RADIAL
 FREQ.      3069.65        C  6 --  H 20          +68.0% ( 85.0%)    98.9%
 T-DIPOLE    0.0245        C  6 --  H 19          +25.7% ( 52.3%)    91.4%
 TRAVEL      0.1210        C  6 --  H 21           +4.7% ( 22.5%)    54.3%
 RED. MASS   0.5578        C  5 --  C  6           +1.0% ( 10.2%)     0.0%
 EFF. MASS   1.4993

 VIBRATION   74   74A       ATOM PAIR        ENERGY CONTRIBUTION    RADIAL
 FREQ.      3070.11        C  7 --  H 23          +49.9% ( 72.9%)    97.2%
 T-DIPOLE    0.0255        C  7 --  H 24          +48.2% ( 71.6%)    96.9%
 TRAVEL      0.1210        C  7 --  C 10           +1.0% ( 10.2%)     0.0%
 RED. MASS   0.5093        C  7 --  H 22           +0.9% (  9.9%)     0.4%
 EFF. MASS   1.5011

 VIBRATION   75   75A       ATOM PAIR        ENERGY CONTRIBUTION    RADIAL
 FREQ.      3075.86        C  7 --  H 22          +62.7% ( 81.6%)    98.9%
 T-DIPOLE    0.0614        C  7 --  H 24          +17.9% ( 43.7%)    85.7%
 TRAVEL      0.1206        C  7 --  H 23          +16.3% ( 41.6%)    84.0%
 RED. MASS   0.4798        C 10 --  H 27           +2.0% ( 14.4%)   100.0%
 EFF. MASS   1.5085

 VIBRATION   76   76A       ATOM PAIR        ENERGY CONTRIBUTION    RADIAL
 FREQ.      3084.57        C  6 --  H 21          +55.3% ( 76.7%)    98.1%
 T-DIPOLE    0.0025        C  6 --  H 19          +38.6% ( 64.0%)    94.9%
 TRAVEL      0.1206        C  6 --  H 20           +4.7% ( 22.4%)    51.3%
 RED. MASS   0.4855        C  5 --  C  6           +1.0% ( 10.3%)     0.0%
 EFF. MASS   1.5041

 VIBRATION   77   77A       ATOM PAIR        ENERGY CONTRIBUTION    RADIAL
 FREQ.      3101.64        C  4 --  H 15          +61.5% ( 77.9%)    98.5%
 T-DIPOLE    0.0828        C  4 --  H 16          +36.3% ( 59.8%)    94.9%
 TRAVEL      0.1300        C  2 --  C  4           +0.7% (  8.3%)    97.6%
 RED. MASS   0.5114        C  1 --  C  4           +0.7% (  8.2%)    48.1%
 EFF. MASS   1.2863

 VIBRATION   78   78A       ATOM PAIR        ENERGY CONTRIBUTION    RADIAL
 FREQ.      3128.26        C 11 --  H 28          +96.3% ( 99.5%)   100.0%
 T-DIPOLE    0.2036        C 11 --  H 29           +2.2% ( 15.1%)    40.2%
 TRAVEL      0.1194        C  9 --  C 11           +1.4% ( 11.8%)    34.1%
 RED. MASS   0.9156
 EFF. MASS   1.5114

 VIBRATION   79   79A       ATOM PAIR        ENERGY CONTRIBUTION    RADIAL
 FREQ.      3147.52        C 11 --  H 29          +95.9% ( 98.9%)    99.9%
 T-DIPOLE    0.2498        C 11 --  H 28           +1.8% ( 13.5%)     1.1%
 TRAVEL      0.1198        C  9 --  C 11           +1.5% ( 12.6%)    59.5%
 RED. MASS   0.8952        C  9 --  H 26           +0.8% (  8.8%)    95.3%
 EFF. MASS   1.4932

 VIBRATION   80   80A       ATOM PAIR        ENERGY CONTRIBUTION    RADIAL
 FREQ.      3169.74        C  7 --  H 22          +34.4% ( 56.5%)    97.2%
 T-DIPOLE    0.0757        C  7 --  H 24          +32.7% ( 55.0%)    97.1%
 TRAVEL      0.1366        C  7 --  H 23          +32.6% ( 54.9%)    97.0%
 RED. MASS   0.3272        C  7 --  C 10           +0.3% (  5.4%)   100.0%
 EFF. MASS   1.1396

 VIBRATION   81   81A       ATOM PAIR        ENERGY CONTRIBUTION    RADIAL
 FREQ.      3176.31        C  6 --  H 21          +39.5% ( 60.5%)    97.9%
 T-DIPOLE    0.0126        C  6 --  H 19          +35.0% ( 56.9%)    97.3%
 TRAVEL      0.1365        C  6 --  H 20          +25.1% ( 48.3%)    95.4%
 RED. MASS   0.3355        C  5 --  C  6           +0.3% (  5.2%)    97.3%
 EFF. MASS   1.1391

 SYMMETRY NUMBER FOR POINT-GROUP C1  =  1


          SYSTEM IS A GROUND STATE


    NULL



          MOLECULE IS NOT LINEAR

          THERE ARE 81 GENUINE VIBRATIONS IN THIS SYSTEM
          THIS THERMODYNAMICS CALCULATION IS LIMITED TO
          MOLECULES WHICH HAVE NO INTERNAL ROTATIONS




                    CALCULATED THERMODYNAMIC PROPERTIES
                                          *
   TEMP. (K)   PARTITION FUNCTION   H.O.F.    ENTHALPY  HEAT CAPACITY ENTROPY
                                   KCAL/MOL   CAL/MOLE    CAL/K/MOL  CAL/K/MOL


 298.00  VIB.     0.1279D+05                  6163.5579    41.1818    39.4757
         ROT.     0.1278D+07                   888.2813     2.9808    30.9232
         INT.     0.1636D+11                  7051.8392    44.1626    70.3988
         TRA.     0.1781D+28                  1480.4688     4.9680    40.9296
         TOT.                       11.316    8532.3081    49.1306   111.3284

 200.00  VIB.     0.4067D+03                  2836.3337    27.2319    26.1211
         ROT.     0.7029D+06                   596.1620     2.9808    29.7345
         INT.     0.2859D+09                  3432.4957    30.2128    55.8556
         TRA.     0.9791D+27                   993.6033     4.9680    38.9485
         TOT.                        7.210    4426.0989    35.1808    94.8040

 210.00  VIB.     0.5807D+03                  3114.9791    28.5032    27.4803
         ROT.     0.7563D+06                   625.9700     2.9808    29.8799
         INT.     0.4392D+09                  3740.9492    31.4840    57.3603
         TRA.     0.1053D+28                  1043.2834     4.9680    39.1909
         TOT.                        7.568    4784.2326    36.4520    96.5511

 220.00  VIB.     0.8280D+03                  3406.5213    29.8116    28.8364
         ROT.     0.8109D+06                   655.7781     2.9808    30.0186
         INT.     0.6715D+09                  4062.2994    32.7924    58.8549
         TRA.     0.1130D+28                  1092.9636     4.9680    39.4220
         TOT.                        7.939    5155.2630    37.7604    98.2769

 230.00  VIB.     0.1179D+04                  3711.3389    31.1583    30.1911
         ROT.     0.8668D+06                   685.5862     2.9808    30.1511
         INT.     0.1022D+10                  4396.9251    34.1391    60.3422
         TRA.     0.1207D+28                  1142.6437     4.9680    39.6428
         TOT.                        8.323    5539.5689    39.1071    99.9850

 240.00  VIB.     0.1678D+04                  4029.8132    32.5428    31.5463
         ROT.     0.9240D+06                   715.3943     2.9808    30.2779
         INT.     0.1550D+10                  4745.2076    35.5236    61.8243
         TRA.     0.1287D+28                  1192.3239     4.9680    39.8543
         TOT.                        8.721    5937.5315    40.4916   101.6785

 250.00  VIB.     0.2385D+04                  4362.3147    33.9633    32.9035
         ROT.     0.9823D+06                   745.2024     2.9808    30.3996
         INT.     0.2343D+10                  5107.5172    36.9442    63.3031
         TRA.     0.1368D+28                  1242.0041     4.9680    40.0571
         TOT.                        9.133    6349.5212    41.9122   103.3601

 260.00  VIB.     0.3387D+04                  4709.1917    35.4173    34.2637
         ROT.     0.1042D+07                   775.0105     2.9808    30.5165
         INT.     0.3529D+10                  5484.2022    38.3982    64.7803
         TRA.     0.1451D+28                  1291.6842     4.9680    40.2519
         TOT.                        9.560    6775.8864    43.3662   105.0322

 270.00  VIB.     0.4808D+04                  5070.7617    36.9014    35.6281
         ROT.     0.1103D+07                   804.8186     2.9808    30.6290
         INT.     0.5301D+10                  5875.5803    39.8822    66.2572
         TRA.     0.1536D+28                  1341.3644     4.9680    40.4394
         TOT.                       10.001    7216.9447    44.8502   106.6966

 280.00  VIB.     0.6821D+04                  5447.3058    38.4115    36.9974
         ROT.     0.1164D+07                   834.6267     2.9808    30.7374
         INT.     0.7942D+10                  6281.9325    41.3923    67.7348
         TRA.     0.1622D+28                  1391.0445     4.9680    40.6201
         TOT.                       10.457    7672.9770    46.3603   108.3549

 290.00  VIB.     0.9675D+04                  5839.0638    39.9434    38.3720
         ROT.     0.1227D+07                   864.4348     2.9808    30.8420
         INT.     0.1187D+11                  6703.4986    42.9242    69.2140
         TRA.     0.1710D+28                  1440.7247     4.9680    40.7944
         TOT.                       10.928    8144.2233    47.8922   110.0084

 300.00  VIB.     0.1372D+05                  6246.2325    41.4929    39.7522
         ROT.     0.1291D+07                   894.2429     2.9808    30.9431
         INT.     0.1772D+11                  7140.4754    44.4737    70.6953
         TRA.     0.1799D+28                  1490.4049     4.9680    40.9628
         TOT.                       11.415    8630.8803    49.4417   111.6581

 310.00  VIB.     0.1945D+05                  6668.9647    43.0554    41.1382
         ROT.     0.1356D+07                   924.0510     2.9808    31.0408
         INT.     0.2639D+11                  7593.0157    46.0362    72.1790
         TRA.     0.1889D+28                  1540.0850     4.9680    41.1257
         TOT.                       11.917    9133.1008    51.0042   113.3047

 320.00  VIB.     0.2759D+05                  7107.3697    44.6267    42.5299
         ROT.     0.1423D+07                   953.8591     2.9808    31.1355
         INT.     0.3924D+11                  8061.2288    47.6075    73.6654
         TRA.     0.1982D+28                  1589.7652     4.9680    41.2835
         TOT.                       12.435    9650.9940    52.5755   114.9488

 330.00  VIB.     0.3912D+05                  7561.5144    46.2027    43.9273
         ROT.     0.1490D+07                   983.6672     2.9808    31.2272
         INT.     0.5828D+11                  8545.1817    49.1835    75.1545
         TRA.     0.2075D+28                  1639.4454     4.9680    41.4364
         TOT.                       12.969   10184.6270    54.1515   116.5908

 340.00  VIB.     0.5549D+05                  8031.4261    47.7795    45.3300
         ROT.     0.1558D+07                  1013.4753     2.9808    31.3162
         INT.     0.8645D+11                  9044.9014    50.7603    76.6461
         TRA.     0.2170D+28                  1689.1255     4.9680    41.5847
         TOT.                       13.518   10734.0269    55.7283   118.2308

 350.00  VIB.     0.7872D+05                  8517.0941    49.3534    46.7377
         ROT.     0.1627D+07                  1043.2834     2.9808    31.4026
         INT.     0.1281D+12                  9560.3775    52.3342    78.1403
         TRA.     0.2267D+28                  1738.8057     4.9680    41.7287
         TOT.                       14.083   11299.1832    57.3022   119.8689

 360.00  VIB.     0.1117D+06                  9018.4739    50.9213    48.1500
         ROT.     0.1697D+07                  1073.0915     2.9808    31.4866
         INT.     0.1896D+12                 10091.5654    53.9021    79.6366
         TRA.     0.2364D+28                  1788.4859     4.9680    41.8686
         TOT.                       14.664   11880.0512    58.8701   121.5052

 370.00  VIB.     0.1586D+06                  9535.4892    52.4801    49.5665
         ROT.     0.1769D+07                  1102.8996     2.9808    31.5682
         INT.     0.2805D+12                 10638.3888    55.4609    81.1347
         TRA.     0.2464D+28                  1838.1660     4.9680    42.0047
         TOT.                       15.260   12476.5548    60.4289   123.1395

 380.00  VIB.     0.2252D+06                 10068.0360    54.0271    50.9866
         ROT.     0.1841D+07                  1132.7077     2.9808    31.6477
         INT.     0.4145D+12                 11200.7437    57.0080    82.6343
         TRA.     0.2564D+28                  1887.8462     4.9680    42.1372
         TOT.                       15.873   13088.5899    61.9760   124.7716

 390.00  VIB.     0.3199D+06                 10615.9853    55.5602    52.4098
         ROT.     0.1914D+07                  1162.5158     2.9808    31.7251
         INT.     0.6123D+12                 11778.5011    58.5410    84.1350
         TRA.     0.2666D+28                  1937.5263     4.9680    42.2663
         TOT.                       16.500   13716.0275    63.5090   126.4013

 400.00  VIB.     0.4546D+06                 11179.1866    57.0772    53.8357
         ROT.     0.1988D+07                  1192.3239     2.9808    31.8006
         INT.     0.9038D+12                 12371.5105    60.0580    85.6363
         TRA.     0.2769D+28                  1987.2065     4.9680    42.3921
         TOT.                       17.143   14358.7170    65.0261   128.0283

   *: NOTE: HEATS OF FORMATION ARE RELATIVE TO THE
            ELEMENTS IN THEIR STANDARD STATE AT 298K
              (=  Standard Enthalpy of Formation).

            Hvib:  Zero-point energy is not included.
                   frequencies of less than zero cm-1 are not included.
            Hrot = (3/2)RT
            Htra = (3/2)RT + pV = (5/2)RT

            Heat capacity is Cp, not Cv

           For more information, see: HTTP://OpenMOPAC.net/Manual/thermochemistry.html


           FORCE CONSTANT IN CARTESIAN COORDINATES (Millidynes/A)

    ATOM   CHEMICAL       X               Y               Z
   NUMBER   SYMBOL  FORCE CONSTANT  FORCE CONSTANT  FORCE CONSTANT

      1       C        7.645933        8.234831        8.684223
      2       C        7.527610        8.063916        9.263417
      3       C        8.028177        7.757025        9.340032
      4       C        7.851718        7.887622        8.649418
      5       C        8.323645        8.493917        8.278267
      6       C        8.208980        8.317589        8.338436
      7       C        8.302437        8.273670        8.879650
      8       C        9.269747        8.814050        9.351334
      9       C        4.650740       13.935763        8.746574
     10       C        9.122477        8.656431        9.430715
     11       C        4.116639       13.815618        8.565081
     12       H        1.350983        1.268515        3.639959
     13       H        1.252973        1.393530        3.602103
     14       H        1.359220        1.370465        3.512657
     15       H        1.569431        1.571860        3.495733
     16       H        1.382780        1.373754        3.865907
     17       H        4.628104        1.051600        0.698173
     18       H        1.571801        1.124311        3.685897
     19       H        1.825638        1.236830        3.720318
     20       H        4.913111        1.119641        0.694197
     21       H        1.432052        1.532243        3.829675
     22       H        1.341188        1.328136        4.102451
     23       H        5.179027        0.803755        0.680718
     24       H        0.741011        5.245843        0.677865
     25       H        1.028477        1.022232        4.147977
     26       H        0.426504        2.034721        3.746503
     27       H        1.027760        1.018234        4.174501
     28       H        0.414956        2.249123        3.784482
     29       H        1.148609        1.527050        3.804819



 TOTAL CPU TIME:             7.37 SECONDS

 == MOPAC DONE ==
