 *******************************************************************************
 ** Site#: 14399           For non-commercial use only        Version 13.159M **
 *******************************************************************************
 ** Cite this work as: MOPAC2012, James J. P. Stewart, Stewart Computational  **
 ** Chemistry, Version 13.159M web: HTTP://OpenMOPAC.net  Days remaining:   6 **
 *******************************************************************************
 **                                                                           **
 **                                MOPAC2012                                  **
 **                                                                           **
 *******************************************************************************

                            PM3 CALCULATION RESULTS


 *******************************************************************************
 *  CALCULATION DONE:                                Mon Jun  2 14:11:50 2014  *
 *  PM3      - The PM3 Hamiltonian to be used
 *  PRECISE  - CRITERIA TO BE INCREASED BY 100 TIMES
 *  NOSYM    - POINT-GROUP SYMMETRY SET TO C1
 *  T=       - A TIME OF 172800.0 SECONDS REQUESTED
 *  DUMP=N   - RESTART FILE WRITTEN EVERY  7200.000 SECONDS
 *******************************************************************************
pm3  precise nosym
 InChI=1S/C8H14O/c1-2-7-4-3-5-8(9)6-7/h3-4,7-9H,2,5-6H2,1H3

   ATOM   CHEMICAL          X               Y               Z
  NUMBER   SYMBOL      (ANGSTROMS)     (ANGSTROMS)     (ANGSTROMS)
 
     1       C          0.62970000  *  -0.32760000  *  -0.43160000  *
     2       C         -1.56250000  *   0.97190000  *  -0.37880000  *
     3       C         -0.13940000  *   0.86620000  *   0.17540000  *
     4       C          1.91760000  *  -0.65300000  *   0.34720000  *
     5       C         -2.34220000  *  -0.32120000  *  -0.10090000  *
     6       C          2.95280000  *   0.46950000  *   0.35770000  *
     7       C         -0.22580000  *  -1.57150000  *  -0.55930000  *
     8       C         -1.55940000  *  -1.56820000  *  -0.41320000  *
     9       O         -2.23110000  *   2.10140000  *   0.22170000  *
    10       H          0.92080000  *  -0.06020000  *  -1.47490000  *
    11       H         -1.49130000  *   1.12930000  *  -1.48310000  *
    12       H          1.67400000  *  -0.93160000  *   1.39930000  *
    13       H          2.41510000  *  -1.54050000  *  -0.11070000  *
    14       H          0.40100000  *   1.81670000  *  -0.04200000  *
    15       H         -0.19540000  *   0.76610000  *   1.28560000  *
    16       H         -3.27060000  *  -0.31750000  *  -0.71690000  *
    17       H         -2.65270000  *  -0.37140000  *   0.96820000  *
    18       H          3.20920000  *   0.78430000  *  -0.67940000  *
    19       H          2.58860000  *   1.35200000  *   0.93010000  *
    20       H          3.88610000  *   0.11720000  *   0.85290000  *
    21       H         -2.10290000  *  -2.50750000  *  -0.50450000  *
    22       H          0.25540000  *  -2.51230000  *  -0.82570000  *
    23       H         -3.07710000  *   2.30790000  *  -0.33920000  *
 


          CARTESIAN COORDINATES 

    NO.       ATOM         X         Y         Z

     1         C        0.6297   -0.3276   -0.4316
     2         C       -1.5625    0.9719   -0.3788
     3         C       -0.1394    0.8662    0.1754
     4         C        1.9176   -0.6530    0.3472
     5         C       -2.3422   -0.3212   -0.1009
     6         C        2.9528    0.4695    0.3577
     7         C       -0.2258   -1.5715   -0.5593
     8         C       -1.5594   -1.5682   -0.4132
     9         O       -2.2311    2.1014    0.2217
    10         H        0.9208   -0.0602   -1.4749
    11         H       -1.4913    1.1293   -1.4831
    12         H        1.6740   -0.9316    1.3993
    13         H        2.4151   -1.5405   -0.1107
    14         H        0.4010    1.8167   -0.0420
    15         H       -0.1954    0.7661    1.2856
    16         H       -3.2706   -0.3175   -0.7169
    17         H       -2.6527   -0.3714    0.9682
    18         H        3.2092    0.7843   -0.6794
    19         H        2.5886    1.3520    0.9301
    20         H        3.8861    0.1172    0.8529
    21         H       -2.1029   -2.5075   -0.5045
    22         H        0.2554   -2.5123   -0.8257
    23         H       -3.0771    2.3079   -0.3392

  H: (PM3): J. J. P. STEWART, J. COMP. CHEM. 10, 209 (1989).
  C: (PM3): J. J. P. STEWART, J. COMP. CHEM. 10, 209 (1989).
  O: (PM3): J. J. P. STEWART, J. COMP. CHEM. 10, 209 (1989).

           Empirical Formula: C8 H14 O  =    23 atoms



      MOLECULAR POINT GROUP   :   C1  


      RHF CALCULATION, NO. OF DOUBLY OCCUPIED LEVELS =   26

      Geometry optimization using EF

          DIAGONAL MATRIX USED AS START HESSIAN

 CYCLE:     1 TIME:   0.009 TIME LEFT:  2.00D  GRAD.:   122.120 HEAT:-47.56811
 CYCLE:     2 TIME:   0.014 TIME LEFT:  2.00D  GRAD.:    71.036 HEAT:-51.56237
 CYCLE:     3 TIME:   0.013 TIME LEFT:  2.00D  GRAD.:    34.509 HEAT:-52.95683
 CYCLE:     4 TIME:   0.013 TIME LEFT:  2.00D  GRAD.:    32.667 HEAT:-53.39571
 CYCLE:     5 TIME:   0.007 TIME LEFT:  2.00D  GRAD.:    30.933 HEAT:-53.86663
 CYCLE:     6 TIME:   0.013 TIME LEFT:  2.00D  GRAD.:    34.221 HEAT:-54.08356
 CYCLE:     7 TIME:   0.007 TIME LEFT:  2.00D  GRAD.:    29.734 HEAT:-54.23003
 CYCLE:     8 TIME:   0.007 TIME LEFT:  2.00D  GRAD.:    41.712 HEAT:-54.23385
 CYCLE:     9 TIME:   0.007 TIME LEFT:  2.00D  GRAD.:    38.228 HEAT:-54.26820
 CYCLE:    10 TIME:   0.007 TIME LEFT:  2.00D  GRAD.:    41.300 HEAT:-54.29188
 CYCLE:    11 TIME:   0.008 TIME LEFT:  2.00D  GRAD.:    41.817 HEAT:-54.31064
 CYCLE:    12 TIME:   0.007 TIME LEFT:  2.00D  GRAD.:    34.960 HEAT:-54.40736
 CYCLE:    13 TIME:   0.018 TIME LEFT:  2.00D  GRAD.:    12.356 HEAT:-54.70488
 CYCLE:    14 TIME:   0.013 TIME LEFT:  2.00D  GRAD.:     9.174 HEAT:-54.73846
 CYCLE:    15 TIME:   0.007 TIME LEFT:  2.00D  GRAD.:     8.991 HEAT:-54.76399
 CYCLE:    16 TIME:   0.007 TIME LEFT:  2.00D  GRAD.:    10.097 HEAT:-54.79053
 CYCLE:    17 TIME:   0.007 TIME LEFT:  2.00D  GRAD.:    10.906 HEAT:-54.81366
 CYCLE:    18 TIME:   0.013 TIME LEFT:  2.00D  GRAD.:     9.341 HEAT:-54.84178
 CYCLE:    19 TIME:   0.007 TIME LEFT:  2.00D  GRAD.:     9.860 HEAT:-54.85360
 CYCLE:    20 TIME:   0.007 TIME LEFT:  2.00D  GRAD.:     5.489 HEAT:-54.88851
 CYCLE:    21 TIME:   0.008 TIME LEFT:  2.00D  GRAD.:     5.860 HEAT:-54.90881
 CYCLE:    22 TIME:   0.007 TIME LEFT:  2.00D  GRAD.:     5.674 HEAT:-54.93216
 CYCLE:    23 TIME:   0.007 TIME LEFT:  2.00D  GRAD.:     8.838 HEAT:-54.93906
 CYCLE:    24 TIME:   0.007 TIME LEFT:  2.00D  GRAD.:     6.656 HEAT:-54.95958
 CYCLE:    25 TIME:   0.007 TIME LEFT:  2.00D  GRAD.:     6.634 HEAT:-54.97259
 CYCLE:    26 TIME:   0.007 TIME LEFT:  2.00D  GRAD.:     4.072 HEAT:-54.98718
 CYCLE:    27 TIME:   0.007 TIME LEFT:  2.00D  GRAD.:     3.557 HEAT:-55.00034
 CYCLE:    28 TIME:   0.007 TIME LEFT:  2.00D  GRAD.:     4.094 HEAT:-55.01067
 CYCLE:    29 TIME:   0.007 TIME LEFT:  2.00D  GRAD.:     3.938 HEAT:-55.02222
 CYCLE:    30 TIME:   0.007 TIME LEFT:  2.00D  GRAD.:     2.352 HEAT:-55.02925
 CYCLE:    31 TIME:   0.007 TIME LEFT:  2.00D  GRAD.:     2.069 HEAT:-55.03461
 CYCLE:    32 TIME:   0.009 TIME LEFT:  2.00D  GRAD.:     2.209 HEAT:-55.04138
 CYCLE:    33 TIME:   0.007 TIME LEFT:  2.00D  GRAD.:     1.859 HEAT:-55.04644
 CYCLE:    34 TIME:   0.007 TIME LEFT:  2.00D  GRAD.:     1.796 HEAT:-55.05140
 CYCLE:    35 TIME:   0.007 TIME LEFT:  2.00D  GRAD.:     1.800 HEAT:-55.05696
 CYCLE:    36 TIME:   0.007 TIME LEFT:  2.00D  GRAD.:     1.514 HEAT:-55.06049
 CYCLE:    37 TIME:   0.007 TIME LEFT:  2.00D  GRAD.:     1.299 HEAT:-55.06299
 CYCLE:    38 TIME:   0.007 TIME LEFT:  2.00D  GRAD.:     1.380 HEAT:-55.06638
 CYCLE:    39 TIME:   0.007 TIME LEFT:  2.00D  GRAD.:     1.330 HEAT:-55.06887
 CYCLE:    40 TIME:   0.007 TIME LEFT:  2.00D  GRAD.:     1.133 HEAT:-55.07048
 CYCLE:    41 TIME:   0.007 TIME LEFT:  2.00D  GRAD.:     1.106 HEAT:-55.07247
 CYCLE:    42 TIME:   0.007 TIME LEFT:  2.00D  GRAD.:     1.437 HEAT:-55.07626
 CYCLE:    43 TIME:   0.007 TIME LEFT:  2.00D  GRAD.:     1.398 HEAT:-55.07920
 CYCLE:    44 TIME:   0.007 TIME LEFT:  2.00D  GRAD.:     1.268 HEAT:-55.08223
 CYCLE:    45 TIME:   0.007 TIME LEFT:  2.00D  GRAD.:     1.597 HEAT:-55.08615
 CYCLE:    46 TIME:   0.007 TIME LEFT:  2.00D  GRAD.:     2.145 HEAT:-55.09205
 CYCLE:    47 TIME:   0.007 TIME LEFT:  2.00D  GRAD.:     2.067 HEAT:-55.09981
 CYCLE:    48 TIME:   0.007 TIME LEFT:  2.00D  GRAD.:     1.786 HEAT:-55.10781
 CYCLE:    49 TIME:   0.007 TIME LEFT:  2.00D  GRAD.:     1.398 HEAT:-55.11256
 CYCLE:    50 TIME:   0.007 TIME LEFT:  2.00D  GRAD.:     1.109 HEAT:-55.11542
 CYCLE:    51 TIME:   0.007 TIME LEFT:  2.00D  GRAD.:     0.936 HEAT:-55.11757
 CYCLE:    52 TIME:   0.007 TIME LEFT:  2.00D  GRAD.:     1.104 HEAT:-55.11986
 CYCLE:    53 TIME:   0.007 TIME LEFT:  2.00D  GRAD.:     0.924 HEAT:-55.12172
 CYCLE:    54 TIME:   0.007 TIME LEFT:  2.00D  GRAD.:     0.981 HEAT:-55.12363
 CYCLE:    55 TIME:   0.009 TIME LEFT:  2.00D  GRAD.:     0.928 HEAT:-55.12555
 CYCLE:    56 TIME:   0.008 TIME LEFT:  2.00D  GRAD.:     1.114 HEAT:-55.12767
 CYCLE:    57 TIME:   0.008 TIME LEFT:  2.00D  GRAD.:     1.186 HEAT:-55.13007
 CYCLE:    58 TIME:   0.007 TIME LEFT:  2.00D  GRAD.:     1.040 HEAT:-55.13204
 CYCLE:    59 TIME:   0.008 TIME LEFT:  2.00D  GRAD.:     0.883 HEAT:-55.13366
 CYCLE:    60 TIME:   0.010 TIME LEFT:  2.00D  GRAD.:     0.843 HEAT:-55.13532
 CYCLE:    61 TIME:   0.007 TIME LEFT:  2.00D  GRAD.:     0.804 HEAT:-55.13686
 CYCLE:    62 TIME:   0.007 TIME LEFT:  2.00D  GRAD.:     0.613 HEAT:-55.13775
 CYCLE:    63 TIME:   0.007 TIME LEFT:  2.00D  GRAD.:     0.527 HEAT:-55.13844
 CYCLE:    64 TIME:   0.007 TIME LEFT:  2.00D  GRAD.:     0.545 HEAT:-55.13915
 CYCLE:    65 TIME:   0.007 TIME LEFT:  2.00D  GRAD.:     0.454 HEAT:-55.13966
 CYCLE:    66 TIME:   0.007 TIME LEFT:  2.00D  GRAD.:     0.317 HEAT:-55.13996
 CYCLE:    67 TIME:   0.007 TIME LEFT:  2.00D  GRAD.:     0.245 HEAT:-55.14013
 CYCLE:    68 TIME:   0.007 TIME LEFT:  2.00D  GRAD.:     0.253 HEAT:-55.14028
 CYCLE:    69 TIME:   0.007 TIME LEFT:  2.00D  GRAD.:     0.240 HEAT:-55.14043
 CYCLE:    70 TIME:   0.007 TIME LEFT:  2.00D  GRAD.:     0.221 HEAT:-55.14053
 CYCLE:    71 TIME:   0.007 TIME LEFT:  2.00D  GRAD.:     0.208 HEAT:-55.14062
 CYCLE:    72 TIME:   0.007 TIME LEFT:  2.00D  GRAD.:     0.239 HEAT:-55.14074
 CYCLE:    73 TIME:   0.007 TIME LEFT:  2.00D  GRAD.:     0.287 HEAT:-55.14090
 CYCLE:    74 TIME:   0.009 TIME LEFT:  2.00D  GRAD.:     0.263 HEAT:-55.14104
 CYCLE:    75 TIME:   0.007 TIME LEFT:  2.00D  GRAD.:     0.217 HEAT:-55.14120
 CYCLE:    76 TIME:   0.007 TIME LEFT:  2.00D  GRAD.:     0.176 HEAT:-55.14128
 CYCLE:    77 TIME:   0.007 TIME LEFT:  2.00D  GRAD.:     0.198 HEAT:-55.14139
 CYCLE:    78 TIME:   0.007 TIME LEFT:  2.00D  GRAD.:     0.143 HEAT:-55.14144
 CYCLE:    79 TIME:   0.007 TIME LEFT:  2.00D  GRAD.:     0.102 HEAT:-55.14147
 CYCLE:    80 TIME:   0.007 TIME LEFT:  2.00D  GRAD.:     0.090 HEAT:-55.14150
 CYCLE:    81 TIME:   0.007 TIME LEFT:  2.00D  GRAD.:     0.452 HEAT:-55.14145
 CYCLE:    82 TIME:   0.007 TIME LEFT:  2.00D  GRAD.:     0.158 HEAT:-55.14156
 CYCLE:    83 TIME:   0.007 TIME LEFT:  2.00D  GRAD.:     0.108 HEAT:-55.14159
 CYCLE:    84 TIME:   0.007 TIME LEFT:  2.00D  GRAD.:     0.233 HEAT:-55.14167
 CYCLE:    85 TIME:   0.007 TIME LEFT:  2.00D  GRAD.:     0.197 HEAT:-55.14171
 CYCLE:    86 TIME:   0.007 TIME LEFT:  2.00D  GRAD.:     0.119 HEAT:-55.14180
 CYCLE:    87 TIME:   0.007 TIME LEFT:  2.00D  GRAD.:     0.129 HEAT:-55.14185
 CYCLE:    88 TIME:   0.007 TIME LEFT:  2.00D  GRAD.:     0.192 HEAT:-55.14195
 CYCLE:    89 TIME:   0.007 TIME LEFT:  2.00D  GRAD.:     0.145 HEAT:-55.14200
 CYCLE:    90 TIME:   0.007 TIME LEFT:  2.00D  GRAD.:     0.156 HEAT:-55.14191
 CYCLE:    91 TIME:   0.007 TIME LEFT:  2.00D  GRAD.:     0.090 HEAT:-55.14208
 CYCLE:    92 TIME:   0.007 TIME LEFT:  2.00D  GRAD.:     0.087 HEAT:-55.14211
 CYCLE:    93 TIME:   0.007 TIME LEFT:  2.00D  GRAD.:     0.209 HEAT:-55.14206
 CYCLE:    94 TIME:   0.007 TIME LEFT:  2.00D  GRAD.:     0.078 HEAT:-55.14219
 CYCLE:    95 TIME:   0.007 TIME LEFT:  2.00D  GRAD.:     0.052 HEAT:-55.14221
 CYCLE:    96 TIME:   0.008 TIME LEFT:  2.00D  GRAD.:     0.041 HEAT:-55.14222

     RMS GRADIENT =  0.04052  IS LESS THAN CUTOFF =  0.05000



 -------------------------------------------------------------------------------
pm3  precise nosym
 InChI=1S/C8H14O/c1-2-7-4-3-5-8(9)6-7/h3-4,7-9H,2,5-6H2,1H3



     GEOMETRY OPTIMISED USING EIGENVECTOR FOLLOWING (EF).     
     SCF FIELD WAS ACHIEVED                                   


                              PM3 CALCULATION
                                                       MOPAC2012 (Version: 13.159M)
                                                       Mon Jun  2 14:11:50 2014
                                                       No. of days left =   6




          FINAL HEAT OF FORMATION =        -55.14222 KCAL/MOL =    -230.71506 KJ/MOL


          TOTAL ENERGY            =      -1458.09696 EV
          ELECTRONIC ENERGY       =      -7610.27648 EV  POINT GROUP:     C1  
          CORE-CORE REPULSION     =       6152.17952 EV
          COSMO AREA              =        173.72 SQUARE ANGSTROMS
          COSMO VOLUME            =        175.58 CUBIC ANGSTROMS

          GRADIENT NORM           =          0.04052
          IONIZATION POTENTIAL    =          9.772342 EV
          HOMO LUMO ENERGIES (EV) =         -9.772  1.018
          NO. OF FILLED LEVELS    =         26
          MOLECULAR WEIGHT        =        126.198

          MOLECULAR DIMENSIONS (Angstroms)

            Atom       Atom       Distance
            H    20    H    21     6.69001
            H    23    H    22     5.63205
            H    11    H    12     2.86774


          SCF CALCULATIONS        =        104
          COMPUTATION TIME        =          0.747 SECONDS




   ATOM   CHEMICAL          X               Y               Z
  NUMBER   SYMBOL      (ANGSTROMS)     (ANGSTROMS)     (ANGSTROMS)
 
     1       C          0.61776175  *  -0.31098635  *  -0.38142904  *
     2       C         -1.53845919  *   0.96632246  *  -0.38138087  *
     3       C         -0.16569185  *   0.82124659  *   0.28303714  *
     4       C          1.90156698  *  -0.62320878  *   0.39244204  *
     5       C         -2.35802632  *  -0.31997370  *  -0.18728161  *
     6       C          2.94732277  *   0.45821998  *   0.23453510  *
     7       C         -0.21939524  *  -1.54227608  *  -0.52147532  *
     8       C         -1.55113734  *  -1.53851571  *  -0.45033697  *
     9       O         -2.16930744  *   2.08684740  *   0.21150225  *
    10       H          0.89488294  *   0.00298405  *  -1.42017393  *
    11       H         -1.40596132  *   1.16860984  *  -1.47318519  *
    12       H          1.66812828  *  -0.77312432  *   1.46533149  *
    13       H          2.31920372  *  -1.58885470  *   0.04183246  *
    14       H          0.40169533  *   1.77060178  *   0.21030436  *
    15       H         -0.28616696  *   0.62567644  *   1.36771816  *
    16       H         -3.24532330  *  -0.31122556  *  -0.85121748  *
    17       H         -2.75345162  *  -0.37859158  *   0.84790664  *
    18       H          3.21958163  *   0.60968747  *  -0.81865950  *
    19       H          2.59833395  *   1.42502054  *   0.62274319  *
    20       H          3.86613528  *   0.20128172  *   0.77715899  *
    21       H         -2.11758001  *  -2.46889344  *  -0.57248261  *
    22       H          0.32288359  *  -2.47676028  *  -0.71030177  *
    23       H         -3.04111832  *   2.12966273  *  -0.15768339  *

           Empirical Formula: C8 H14 O  =    23 atoms



      MOLECULAR POINT GROUP   :   C1  


                  EIGENVALUES  
 -41.74307 -37.07404 -33.84450 -29.13395 -28.39340 -23.53348 -21.45730 -20.69426
 -18.26454 -17.74587 -16.97609 -16.00831 -15.55370 -14.72972 -14.44055 -14.37392
 -14.01530 -13.68567 -13.24461 -12.68735 -12.34255 -11.96640 -11.67473 -11.61211
 -10.96542  -9.77234   1.01751   3.09421   3.30930   3.36270   3.53071   3.64050
   3.76468   3.78799   3.86403   4.00652   4.06668   4.20139   4.28608   4.37251
   4.43630   4.65060   4.66813   4.84825   4.93769   5.01368   5.14912   5.59549
   5.71775   5.87619


              NET ATOMIC CHARGES AND DIPOLE CONTRIBUTIONS

  ATOM NO.   TYPE          CHARGE      No. of ELECS.   s-Pop       p-Pop       
    1          C          -0.039083        4.0391     1.16532     2.87376
    2          C           0.082348        3.9177     1.17105     2.74660
    3          C          -0.112236        4.1122     1.16572     2.94651
    4          C          -0.093333        4.0933     1.16116     2.93218
    5          C          -0.099908        4.0999     1.15810     2.94181
    6          C          -0.113666        4.1137     1.13913     2.97454
    7          C          -0.145672        4.1457     1.19837     2.94730
    8          C          -0.144528        4.1445     1.19180     2.95273
    9          O          -0.308721        6.3087     1.81071     4.49801
   10          H           0.069720        0.9303     0.93028
   11          H           0.043373        0.9566     0.95663
   12          H           0.054133        0.9459     0.94587
   13          H           0.049235        0.9508     0.95077
   14          H           0.066669        0.9333     0.93333
   15          H           0.067037        0.9330     0.93296
   16          H           0.051798        0.9482     0.94820
   17          H           0.070028        0.9300     0.92997
   18          H           0.038076        0.9619     0.96192
   19          H           0.042478        0.9575     0.95752
   20          H           0.038170        0.9618     0.96183
   21          H           0.097780        0.9022     0.90222
   22          H           0.101191        0.8988     0.89881
   23          H           0.185109        0.8149     0.81489
 DIPOLE           X         Y         Z       TOTAL
 POINT-CHG.     0.060    -0.566    -0.527     0.776
 HYBRID        -0.520    -0.301    -0.356     0.699
 SUM           -0.460    -0.867    -0.883     1.320


          ATOMIC ORBITAL ELECTRON POPULATIONS

    Atom      s        px        py        pz   
    1  C   1.16532   0.94550   0.93771   0.99055
    2  C   1.17105   0.92848   0.86078   0.95734
    3  C   1.16572   0.95379   0.98822   1.00450
    4  C   1.16116   0.94709   0.98245   1.00264
    5  C   1.15810   0.97400   0.94882   1.01899
    6  C   1.13913   0.97986   0.98567   1.00901
    7  C   1.19837   0.95540   0.98137   1.01053
    8  C   1.19180   0.95697   0.97681   1.01896
    9  O   1.81071   1.32008   1.47708   1.70085
   10  H   0.93028
   11  H   0.95663
   12  H   0.94587
   13  H   0.95077
   14  H   0.93333
   15  H   0.93296
   16  H   0.94820
   17  H   0.92997
   18  H   0.96192
   19  H   0.95752
   20  H   0.96183
   21  H   0.90222
   22  H   0.89881
   23  H   0.81489
 *******************************************************************************
 ** Site#: 14399           For non-commercial use only        Version 13.159M **
 *******************************************************************************
 ** Cite this work as: MOPAC2012, James J. P. Stewart, Stewart Computational  **
 ** Chemistry, Version 13.159M web: HTTP://OpenMOPAC.net  Days remaining:   6 **
 *******************************************************************************
 **                                                                           **
 **                                MOPAC2012                                  **
 **                                                                           **
 *******************************************************************************

                            PM3 CALCULATION RESULTS


 *******************************************************************************
 *  CALCULATION DONE:                                Mon Jun  2 14:11:50 2014  *
 *  PM3      - The PM3 Hamiltonian to be used
 *  OLDGEO   - PREVIOUS GEOMETRY TO BE USED
 *  PRECISE  - CRITERIA TO BE INCREASED BY 100 TIMES
 *  NOSYM    - POINT-GROUP SYMMETRY SET TO C1
 *  T=       - A TIME OF 172800.0 SECONDS REQUESTED
 *  DUMP=N   - RESTART FILE WRITTEN EVERY  7200.000 SECONDS
 *  THERMO   - THERMODYNAMIC QUANTITIES TO BE CALCULATED
 *******************************************************************************
oldgeo thermo nosym precise  pm3

   ATOM   CHEMICAL          X               Y               Z
  NUMBER   SYMBOL      (ANGSTROMS)     (ANGSTROMS)     (ANGSTROMS)
 
     1       C          0.61776175  *  -0.31098635  *  -0.38142904  *
     2       C         -1.53845919  *   0.96632246  *  -0.38138087  *
     3       C         -0.16569185  *   0.82124659  *   0.28303714  *
     4       C          1.90156698  *  -0.62320878  *   0.39244204  *
     5       C         -2.35802632  *  -0.31997370  *  -0.18728161  *
     6       C          2.94732277  *   0.45821998  *   0.23453510  *
     7       C         -0.21939524  *  -1.54227608  *  -0.52147532  *
     8       C         -1.55113734  *  -1.53851571  *  -0.45033697  *
     9       O         -2.16930744  *   2.08684740  *   0.21150225  *
    10       H          0.89488294  *   0.00298405  *  -1.42017393  *
    11       H         -1.40596132  *   1.16860984  *  -1.47318519  *
    12       H          1.66812828  *  -0.77312432  *   1.46533149  *
    13       H          2.31920372  *  -1.58885470  *   0.04183246  *
    14       H          0.40169533  *   1.77060178  *   0.21030436  *
    15       H         -0.28616696  *   0.62567644  *   1.36771816  *
    16       H         -3.24532330  *  -0.31122556  *  -0.85121748  *
    17       H         -2.75345162  *  -0.37859158  *   0.84790664  *
    18       H          3.21958163  *   0.60968747  *  -0.81865950  *
    19       H          2.59833395  *   1.42502054  *   0.62274319  *
    20       H          3.86613528  *   0.20128172  *   0.77715899  *
    21       H         -2.11758001  *  -2.46889344  *  -0.57248261  *
    22       H          0.32288359  *  -2.47676028  *  -0.71030177  *
    23       H         -3.04111832  *   2.12966273  *  -0.15768339  *
 


          CARTESIAN COORDINATES 

    NO.       ATOM         X         Y         Z

     1         C        0.6178   -0.3110   -0.3814
     2         C       -1.5385    0.9663   -0.3814
     3         C       -0.1657    0.8212    0.2830
     4         C        1.9016   -0.6232    0.3924
     5         C       -2.3580   -0.3200   -0.1873
     6         C        2.9473    0.4582    0.2345
     7         C       -0.2194   -1.5423   -0.5215
     8         C       -1.5511   -1.5385   -0.4503
     9         O       -2.1693    2.0868    0.2115
    10         H        0.8949    0.0030   -1.4202
    11         H       -1.4060    1.1686   -1.4732
    12         H        1.6681   -0.7731    1.4653
    13         H        2.3192   -1.5889    0.0418
    14         H        0.4017    1.7706    0.2103
    15         H       -0.2862    0.6257    1.3677
    16         H       -3.2453   -0.3112   -0.8512
    17         H       -2.7535   -0.3786    0.8479
    18         H        3.2196    0.6097   -0.8187
    19         H        2.5983    1.4250    0.6227
    20         H        3.8661    0.2013    0.7772
    21         H       -2.1176   -2.4689   -0.5725
    22         H        0.3229   -2.4768   -0.7103
    23         H       -3.0411    2.1297   -0.1577

  H: (PM3): J. J. P. STEWART, J. COMP. CHEM. 10, 209 (1989).
  C: (PM3): J. J. P. STEWART, J. COMP. CHEM. 10, 209 (1989).
  O: (PM3): J. J. P. STEWART, J. COMP. CHEM. 10, 209 (1989).

           Empirical Formula: C8 H14 O  =    23 atoms



      MOLECULAR POINT GROUP   :   C1  


      RHF CALCULATION, NO. OF DOUBLY OCCUPIED LEVELS =   26



          HEAT OF FORMATION =     -55.142224 KCALS/MOLE


          INTERNAL COORDINATE DERIVATIVES

   NUMBER  ATOM       BOND         ANGLE      DIHEDRAL

     1       C      0.004023    -0.001196    -0.000430
     2       C     -0.000353     0.002707     0.000106
     3       C      0.001321     0.000934     0.001131
     4       C      0.003011    -0.002053     0.001196
     5       C     -0.000637     0.001907     0.000822
     6       C      0.005329    -0.006017    -0.000717
     7       C      0.001983     0.000497    -0.002005
     8       C      0.003053     0.000512     0.000725
     9       O      0.006738    -0.003076    -0.004829
    10       H     -0.005788     0.001822     0.002591
    11       H     -0.014217     0.007333     0.006791
    12       H     -0.005328     0.002652     0.009492
    13       H      0.006815    -0.001252     0.000582
    14       H      0.009565    -0.000876     0.000399
    15       H      0.006982    -0.002053     0.000522
    16       H     -0.004166    -0.000525    -0.001439
    17       H     -0.004882     0.001072     0.003869
    18       H      0.007761     0.003534    -0.000454
    19       H     -0.005022    -0.003553    -0.006008
    20       H      0.001511    -0.009467    -0.005560
    21       H     -0.011562     0.001022     0.005969
    22       H      0.002626     0.001588    -0.012242
    23       H     -0.008765     0.004490    -0.000510


          GRADIENT NORM =   0.04039


          TIME FOR SCF CALCULATION =    0.00

          TIME FOR DERIVATIVES     =    0.00

          MOLECULAR WEIGHT =  126.20



          ROTATIONAL CONSTANTS IN CM(-1)

          A =    0.08558998   B =    0.03779428   C =    0.02768644



           PRINCIPAL MOMENTS OF INERTIA IN UNITS OF 10**(-40)*GRAM-CM**2

          A =      327.0567   B =      740.6617   C =     1011.0644


          ORIENTATION OF MOLECULE IN FORCE CALCULATION

    NO.       ATOM         X         Y         Z

     1          C      -0.9731   -0.1408    0.3058
     2          C       1.5331   -0.1408    0.3058
     3          C       0.2781    0.7378    0.3058
     4          C      -2.2367    0.6968    0.0912
     5          C       1.5826   -0.9914   -0.9740
     6          C      -2.5853    1.5349    1.3012
     7          C      -0.8804   -1.2190   -0.7264
     8          C       0.2673   -1.6072   -1.2838
     9          O       2.6469    0.7280    0.4039
    10          H      -1.0515   -0.6572    1.2965
    11          H       1.5222   -0.8084    1.2028
    12          H      -2.1123    1.3460   -0.7983
    13          H      -3.0882    0.0274   -0.1468
    14          H       0.2738    1.4064    1.1898
    15          H       0.2821    1.4078   -0.5775
    16          H       2.3505   -1.7844   -0.8759
    17          H       1.8930   -0.3734   -1.8419
    18          H      -2.7424    0.9145    2.1938
    19          H      -1.7923    2.2563    1.5418
    20          H      -3.5068    2.1070    1.1331
    21          H       0.2805   -2.4121   -2.0275
    22          H      -1.8232   -1.7070   -1.0019
    23          H       3.4188    0.1821    0.3372


    FIRST DERIVATIVES WILL BE USED IN THE CALCULATION OF SECOND DERIVATIVES

          ESTIMATED TIME TO COMPLETE CALCULATION =        2.56 SECONDS

    FOR POINT-GROUP C1   THERE ARE   1 UNIQUE SYMMETRY FUNCTIONS.

 STEP:   1 TIME =     0.03 SECS, INTEGRAL =      0.03 TIME LEFT: 172799.96
 STEP:   2 TIME =     0.03 SECS, INTEGRAL =      0.06 TIME LEFT: 172799.93
 STEP:   3 TIME =     0.03 SECS, INTEGRAL =      0.09 TIME LEFT: 172799.90
 STEP:   4 TIME =     0.03 SECS, INTEGRAL =      0.12 TIME LEFT: 172799.87
 STEP:   5 TIME =     0.03 SECS, INTEGRAL =      0.15 TIME LEFT: 172799.84
 STEP:   6 TIME =     0.03 SECS, INTEGRAL =      0.18 TIME LEFT: 172799.81
 STEP:   7 TIME =     0.03 SECS, INTEGRAL =      0.21 TIME LEFT: 172799.78
 STEP:   8 TIME =     0.03 SECS, INTEGRAL =      0.25 TIME LEFT: 172799.75
 STEP:   9 TIME =     0.03 SECS, INTEGRAL =      0.28 TIME LEFT: 172799.71
 STEP:  10 TIME =     0.03 SECS, INTEGRAL =      0.31 TIME LEFT: 172799.68
 STEP:  11 TIME =     0.03 SECS, INTEGRAL =      0.34 TIME LEFT: 172799.65
 STEP:  12 TIME =     0.03 SECS, INTEGRAL =      0.37 TIME LEFT: 172799.62
 STEP:  13 TIME =     0.03 SECS, INTEGRAL =      0.40 TIME LEFT: 172799.59
 STEP:  14 TIME =     0.03 SECS, INTEGRAL =      0.43 TIME LEFT: 172799.56
 STEP:  15 TIME =     0.03 SECS, INTEGRAL =      0.46 TIME LEFT: 172799.53
 STEP:  16 TIME =     0.03 SECS, INTEGRAL =      0.49 TIME LEFT: 172799.50
 STEP:  17 TIME =     0.03 SECS, INTEGRAL =      0.52 TIME LEFT: 172799.47
 STEP:  18 TIME =     0.03 SECS, INTEGRAL =      0.55 TIME LEFT: 172799.44
 STEP:  19 TIME =     0.03 SECS, INTEGRAL =      0.58 TIME LEFT: 172799.41
 STEP:  20 TIME =     0.03 SECS, INTEGRAL =      0.61 TIME LEFT: 172799.38
 STEP:  21 TIME =     0.03 SECS, INTEGRAL =      0.64 TIME LEFT: 172799.35
 STEP:  22 TIME =     0.03 SECS, INTEGRAL =      0.67 TIME LEFT: 172799.32
 STEP:  23 TIME =     0.03 SECS, INTEGRAL =      0.70 TIME LEFT: 172799.29
 STEP:  24 TIME =     0.03 SECS, INTEGRAL =      0.73 TIME LEFT: 172799.26
 STEP:  25 TIME =     0.03 SECS, INTEGRAL =      0.76 TIME LEFT: 172799.23
 STEP:  26 TIME =     0.03 SECS, INTEGRAL =      0.79 TIME LEFT: 172799.20
 STEP:  27 TIME =     0.03 SECS, INTEGRAL =      0.83 TIME LEFT: 172799.16
 STEP:  28 TIME =     0.03 SECS, INTEGRAL =      0.86 TIME LEFT: 172799.13
 STEP:  29 TIME =     0.03 SECS, INTEGRAL =      0.89 TIME LEFT: 172799.10
 STEP:  30 TIME =     0.03 SECS, INTEGRAL =      0.92 TIME LEFT: 172799.07
 STEP:  31 TIME =     0.03 SECS, INTEGRAL =      0.95 TIME LEFT: 172799.04
 STEP:  32 TIME =     0.03 SECS, INTEGRAL =      0.98 TIME LEFT: 172799.01
 STEP:  33 TIME =     0.03 SECS, INTEGRAL =      1.01 TIME LEFT: 172798.98
 STEP:  34 TIME =     0.04 SECS, INTEGRAL =      1.05 TIME LEFT: 172798.94
 STEP:  35 TIME =     0.04 SECS, INTEGRAL =      1.09 TIME LEFT: 172798.90
 STEP:  36 TIME =     0.03 SECS, INTEGRAL =      1.12 TIME LEFT: 172798.87
 STEP:  37 TIME =     0.03 SECS, INTEGRAL =      1.15 TIME LEFT: 172798.84
 STEP:  38 TIME =     0.03 SECS, INTEGRAL =      1.18 TIME LEFT: 172798.81
 STEP:  39 TIME =     0.03 SECS, INTEGRAL =      1.21 TIME LEFT: 172798.78
 STEP:  40 TIME =     0.04 SECS, INTEGRAL =      1.25 TIME LEFT: 172798.75
 STEP:  41 TIME =     0.04 SECS, INTEGRAL =      1.28 TIME LEFT: 172798.71
 STEP:  42 TIME =     0.03 SECS, INTEGRAL =      1.32 TIME LEFT: 172798.67
 STEP:  43 TIME =     0.03 SECS, INTEGRAL =      1.35 TIME LEFT: 172798.64
 STEP:  44 TIME =     0.03 SECS, INTEGRAL =      1.38 TIME LEFT: 172798.61
 STEP:  45 TIME =     0.03 SECS, INTEGRAL =      1.41 TIME LEFT: 172798.58
 STEP:  46 TIME =     0.03 SECS, INTEGRAL =      1.44 TIME LEFT: 172798.55
 STEP:  47 TIME =     0.03 SECS, INTEGRAL =      1.47 TIME LEFT: 172798.52
 STEP:  48 TIME =     0.03 SECS, INTEGRAL =      1.50 TIME LEFT: 172798.49
 STEP:  49 TIME =     0.03 SECS, INTEGRAL =      1.53 TIME LEFT: 172798.46
 STEP:  50 TIME =     0.03 SECS, INTEGRAL =      1.56 TIME LEFT: 172798.43
 STEP:  51 TIME =     0.03 SECS, INTEGRAL =      1.59 TIME LEFT: 172798.40
 STEP:  52 TIME =     0.03 SECS, INTEGRAL =      1.62 TIME LEFT: 172798.37
 STEP:  53 TIME =     0.03 SECS, INTEGRAL =      1.65 TIME LEFT: 172798.34
 STEP:  54 TIME =     0.03 SECS, INTEGRAL =      1.69 TIME LEFT: 172798.31
 STEP:  55 TIME =     0.03 SECS, INTEGRAL =      1.72 TIME LEFT: 172798.28
 STEP:  56 TIME =     0.03 SECS, INTEGRAL =      1.75 TIME LEFT: 172798.25
 STEP:  57 TIME =     0.03 SECS, INTEGRAL =      1.78 TIME LEFT: 172798.21
 STEP:  58 TIME =     0.03 SECS, INTEGRAL =      1.81 TIME LEFT: 172798.18
 STEP:  59 TIME =     0.03 SECS, INTEGRAL =      1.84 TIME LEFT: 172798.15
 STEP:  60 TIME =     0.03 SECS, INTEGRAL =      1.87 TIME LEFT: 172798.12
 STEP:  61 TIME =     0.03 SECS, INTEGRAL =      1.90 TIME LEFT: 172798.09
 STEP:  62 TIME =     0.03 SECS, INTEGRAL =      1.93 TIME LEFT: 172798.06
 STEP:  63 TIME =     0.03 SECS, INTEGRAL =      1.96 TIME LEFT: 172798.03
 STEP:  64 TIME =     0.03 SECS, INTEGRAL =      1.99 TIME LEFT: 172798.00
 STEP:  65 TIME =     0.03 SECS, INTEGRAL =      2.02 TIME LEFT: 172797.97
 STEP:  66 TIME =     0.03 SECS, INTEGRAL =      2.06 TIME LEFT: 172797.94
 STEP:  67 TIME =     0.03 SECS, INTEGRAL =      2.09 TIME LEFT: 172797.91
 STEP:  68 TIME =     0.03 SECS, INTEGRAL =      2.12 TIME LEFT: 172797.87
 STEP:  69 TIME =     0.03 SECS, INTEGRAL =      2.15 TIME LEFT: 172797.84

(To convert to Hartree/Bohr^2, multiply by (10^(-21) x N x a0^2)/(4.184 x 627.51) = 0.0642)


           FORCE MATRIX IN MILLIDYNES/ANGSTROM


                  C  1       C  2       C  3       C  4       C  5       C  6
 ------------------------------------------------------------------------------
     C    1  14.588242
     C    2   0.651012  14.515940
     C    3   3.898018   3.828091  14.341748
     C    4   3.816507   0.053908   0.614284  14.293083
     C    5   0.102242   3.627457   0.623408   0.008426  14.647464
     C    6   0.622651   0.004502   0.051039   4.452298   0.001510  14.342268
     C    7   4.675862   0.071881   0.679240   0.692607   0.828493   0.052717
     C    8   0.801318   0.658282   0.071129   0.044678   5.058505   0.010131
     O    9   0.067961   5.112933   0.850524   0.013607   0.846887   0.002718
     H   10   4.125746   0.025114   0.427981   0.433407   0.013370   0.037395
     H   11   0.028623   4.116581   0.423926   0.000829   0.424795   0.000425
     H   12   0.448589   0.003363   0.034500   4.455735   0.000828   0.438371
     H   13   0.442109   0.008740   0.046641   4.427764   0.000636   0.435271
     H   14   0.439467   0.459201   4.462243   0.017552   0.048169   0.018839
     H   15   0.450916   0.463468   4.452562   0.036480   0.021883   0.003207
     H   16   0.010402   0.437724   0.046901   0.000702   4.444001   0.000211
     H   17   0.014692   0.466428   0.010746   0.000956   4.407720   0.000328
     H   18   0.024261   0.000545   0.002337   0.464175   0.000199   4.718654
     H   19   0.016895   0.000959   0.020670   0.464065   0.000633   4.703355
     H   20   0.050934   0.000793   0.002364   0.449326   0.000389   4.747893
     H   21   0.123064   0.040814   0.004848   0.014498   0.429248   0.002442
     H   22   0.431339   0.004749   0.040302   0.045981   0.124126   0.002514
     H   23   0.018010   0.804540   0.109748   0.003237   0.083338   0.000741


                  C  7       C  8       O  9       H 10       H 11       H 12
 ------------------------------------------------------------------------------
     C    7  18.202335
     C    8  10.691386  18.208995
     O    9   0.004629   0.074405  11.943563
     H   10   0.385739   0.030021   0.003094   4.594559
     H   11   0.006328   0.010053   0.416577   0.016546   4.540643
     H   12   0.010682   0.001904   0.001300   0.042762   0.000602   5.072575
     H   13   0.065529   0.002743   0.002741   0.019976   0.000450   0.572342
     H   14   0.050285   0.003879   0.066661   0.033316   0.023160   0.001713
     H   15   0.010572   0.007238   0.050152   0.042536   0.042927   0.029797
     H   16   0.043765   0.434357   0.027606   0.001171   0.033251   0.000245
     H   17   0.029948   0.411544   0.050170   0.002054   0.042668   0.000307
     H   18   0.001814   0.000682   0.000626   0.026032   0.000160   0.048382
     H   19   0.001054   0.000754   0.000668   0.002144   0.000254   0.024179
     H   20   0.009232   0.002151   0.000701   0.002440   0.000071   0.029839
     H   21   0.443321   4.813791   0.012583   0.016377   0.000947   0.000394
     H   22   4.788467   0.440065   0.002471   0.016859   0.000744   0.002302
     H   23   0.004568   0.007941   8.329636   0.000711   0.045357   0.000215


                  H 13       H 14       H 15       H 16       H 17       H 18
 ------------------------------------------------------------------------------
     H   13   5.044597
     H   14   0.001349   5.083969
     H   15   0.002317   0.565265   5.080689
     H   16   0.000275   0.007935   0.002649   5.048416
     H   17   0.000272   0.001412   0.008191   0.563374   5.014425
     H   18   0.025031   0.000695   0.000440   0.000063   0.000074   5.462587
     H   19   0.048858   0.025393   0.001197   0.000184   0.000101   0.577125
     H   20   0.032323   0.000764   0.000355   0.000099   0.000092   0.574360
     H   21   0.000728   0.001126   0.000458   0.035076   0.019854   0.000164
     H   22   0.025738   0.006776   0.001598   0.014973   0.017781   0.000616
     H   23   0.000616   0.003383   0.003184   0.022540   0.012798   0.000174


                  H 19       H 20       H 21       H 22       H 23
 ------------------------------------------------------------------
     H   19   5.439024
     H   20   0.575413   5.485950
     H   21   0.000172   0.000547   5.186926
     H   22   0.000733   0.000543   0.071602   5.164198
     H   23   0.000203   0.000136   0.001835   0.001005   8.581873


          HEAT OF FORMATION =     -55.142224 KCALS/MOLE

          ZERO POINT ENERGY     127.671 KCAL/MOL


           NORMAL COORDINATE ANALYSIS (Total motion = 1 Angstrom)


   Root No.       1         2         3         4         5         6         7         8

                 1 A       2 A       3 A       4 A       5 A       6 A       7 A       8 A   

                  58.9      83.5     149.3     160.5     217.8     236.8     313.5     355.7
  
           1   -0.0034   -0.0041   -0.0076   -0.0017   -0.0104   -0.0038    0.0045    0.0025
           2   -0.0192   -0.0071   -0.0159   -0.0027   -0.0034   -0.0024   -0.0162    0.0032
           3    0.0137   -0.0138    0.0052   -0.0067   -0.0221   -0.0038    0.0257    0.0011
           4   -0.0016   -0.0085    0.0065   -0.0098   -0.0064   -0.0060   -0.0009   -0.0111
           5   -0.0057    0.0053   -0.0033    0.0056   -0.0007    0.0007   -0.0084    0.0249
           6   -0.0019    0.0084    0.0098   -0.0054    0.0016    0.0024   -0.0028    0.0176
           7   -0.0071   -0.0109   -0.0047   -0.0079   -0.0089   -0.0049   -0.0002   -0.0073
           8   -0.0139    0.0017   -0.0210    0.0066   -0.0089   -0.0007   -0.0152    0.0269
           9    0.0264   -0.0205    0.0410   -0.0279    0.0066    0.0105   -0.0217    0.0114
          10   -0.0053   -0.0142    0.0068   -0.0037    0.0138    0.0033    0.0291    0.0000
          11   -0.0242   -0.0157    0.0045   -0.0050    0.0316    0.0072    0.0128   -0.0185
          12    0.0048    0.0179   -0.0058    0.0032   -0.0219   -0.0055   -0.0054   -0.0348
          13   -0.0053    0.0094    0.0019   -0.0015   -0.0059   -0.0016    0.0031   -0.0261
          14    0.0282   -0.0213   -0.0137    0.0142    0.0088    0.0128   -0.0106    0.0139
          15   -0.0243    0.0264    0.0164   -0.0107   -0.0044   -0.0046   -0.0029    0.0238
          16    0.0253    0.0339    0.0089    0.0268    0.0354    0.0107    0.0059    0.0381
          17    0.0372    0.0112    0.0070    0.0019   -0.0101   -0.0032    0.0001   -0.0372
          18   -0.0291    0.0135   -0.0073    0.0079    0.0152    0.0045   -0.0037   -0.0164
          19    0.0029   -0.0015   -0.0034    0.0018   -0.0036    0.0019   -0.0020   -0.0139
          20   -0.0143    0.0099    0.0033   -0.0141   -0.0160   -0.0061   -0.0202   -0.0075
          21    0.0087   -0.0312   -0.0133    0.0055   -0.0064    0.0007    0.0292    0.0184
          22    0.0009    0.0064   -0.0002    0.0040    0.0048    0.0045   -0.0126   -0.0200
          23    0.0079    0.0034    0.0048   -0.0082   -0.0279   -0.0047    0.0297    0.0231
          24   -0.0107   -0.0108   -0.0066    0.0046    0.0182    0.0044   -0.0284   -0.0083
          25   -0.0066   -0.0127   -0.0103   -0.0088   -0.0208   -0.0034   -0.0252    0.0258
          26   -0.0013    0.0112    0.0254   -0.0005    0.0169    0.0006    0.0187   -0.0166
          27    0.0145    0.0032   -0.0332    0.0242    0.0097   -0.0454    0.0129   -0.0109
          28   -0.0088    0.0135   -0.0303    0.0097   -0.0304   -0.0126    0.0030    0.0006
          29   -0.0220   -0.0214   -0.0318    0.0079   -0.0086   -0.0048    0.0102    0.0190
          30    0.0116   -0.0197   -0.0054   -0.0002   -0.0255   -0.0054    0.0380    0.0097
          31    0.0074   -0.0157    0.0437   -0.0281    0.0037   -0.0145   -0.0007   -0.0185
          32   -0.0292    0.0237    0.0050   -0.0004   -0.0070   -0.0076   -0.0072    0.0401
          33   -0.0192    0.0221    0.0161   -0.0100   -0.0033   -0.0034   -0.0021    0.0290
          34   -0.0236   -0.0511    0.0289   -0.0128    0.0412    0.0115    0.0772   -0.0024
          35   -0.0684   -0.0355    0.0055   -0.0095    0.0647    0.0155    0.0276   -0.0206
          36   -0.0300   -0.0016   -0.0023   -0.0013    0.0062    0.0017    0.0113   -0.0362
          37   -0.0123   -0.0211   -0.0022   -0.0109   -0.0003   -0.0009    0.0220   -0.0003
          38   -0.0340   -0.0243    0.0207   -0.0007    0.0640    0.0166    0.0389   -0.0192
          39    0.0576    0.0676   -0.0186    0.0189   -0.0592   -0.0154   -0.0516   -0.0315
          40   -0.0051   -0.0216   -0.0088   -0.0127   -0.0197   -0.0080    0.0058   -0.0210
          41   -0.0346    0.0191   -0.0546    0.0309   -0.0263   -0.0131    0.0282    0.0217
          42    0.0422   -0.0336    0.0671   -0.0458    0.0204    0.0200   -0.0547    0.0154
          43   -0.0163   -0.0084   -0.0063   -0.0091    0.0004   -0.0035   -0.0091   -0.0067
          44    0.0073   -0.0163    0.0142   -0.0171    0.0101    0.0118   -0.0578    0.0323
          45    0.0424   -0.0339    0.0673   -0.0459    0.0205    0.0199   -0.0554    0.0162
          46    0.0144   -0.0139   -0.0135    0.0155    0.0236    0.0175   -0.0358   -0.0464
          47    0.0430   -0.0389   -0.0268    0.0293    0.0349    0.0303   -0.0453   -0.0040
          48   -0.0594    0.0674    0.0332   -0.0239   -0.0276   -0.0208    0.0231    0.0438
          49   -0.0364    0.0542    0.0258   -0.0237   -0.0474   -0.0214    0.0574    0.0051
          50    0.0573   -0.0461   -0.0259    0.0260    0.0257    0.0293   -0.0275    0.0031
          51   -0.0146    0.0247    0.0160   -0.0101   -0.0074    0.0003    0.0054    0.0270
          52    0.0654    0.0876   -0.0870   -0.1215    0.1114    0.0278    0.0197    0.0644
          53    0.0841    0.0325    0.0002   -0.0087   -0.0373   -0.0103   -0.0069   -0.0546
          54    0.0105    0.0377   -0.0291   -0.0258    0.0100    0.0026   -0.0060   -0.0232
          55    0.0235    0.0359    0.0538    0.1128    0.0147    0.0075   -0.0144    0.0567
          56    0.0618    0.0288   -0.0611   -0.1188    0.0213    0.0022    0.0207   -0.0521
          57   -0.0966   -0.0452    0.0498    0.0891   -0.0100   -0.0010    0.0010   -0.0298
          58    0.0116    0.0175    0.0631    0.1189    0.0001    0.0035   -0.0090    0.0390
          59    0.0151   -0.0062    0.0835    0.1370   -0.0490   -0.0101   -0.0241   -0.0244
          60   -0.0287    0.0444   -0.0440   -0.0357    0.0779    0.0207   -0.0043    0.0288
          61    0.0035    0.0121    0.0012    0.0103    0.0193    0.0098   -0.0280   -0.0150
          62    0.0127    0.0152    0.0185   -0.0184   -0.0567   -0.0122    0.0759    0.0487
          63   -0.0157   -0.0236   -0.0217    0.0159    0.0497    0.0128   -0.0790   -0.0357
          64    0.0072   -0.0025   -0.0041    0.0053   -0.0003    0.0041   -0.0002   -0.0144
          65   -0.0290    0.0291    0.0164   -0.0277   -0.0254   -0.0127   -0.0366   -0.0196
          66    0.0201   -0.0612   -0.0344    0.0182   -0.0003    0.0053    0.0523    0.0416
          67   -0.0035   -0.0099    0.0013   -0.0098   -0.0103   -0.0132   -0.0089    0.0000
          68    0.0053    0.0125    0.0424   -0.0020    0.0388   -0.0878    0.0395   -0.0510
          69   -0.0051    0.0245   -0.0365    0.0244   -0.0472    0.5795    0.0365   -0.0345


   Root No.       9        10        11        12        13        14        15        16

                 9 A      10 A      11 A      12 A      13 A      14 A      15 A      16 A   

                 427.6     439.3     474.4     497.1     556.8     709.0     765.4     821.8
  
           1   -0.0220   -0.0256    0.0271   -0.0040   -0.0192    0.0058    0.0033   -0.0005
           2   -0.0297    0.0066   -0.0185   -0.0217   -0.0200   -0.0032   -0.0006    0.0010
           3   -0.0013   -0.0042    0.0103   -0.0135    0.0491   -0.0204   -0.0159    0.0036
           4    0.0108   -0.0205   -0.0405    0.0139   -0.0057   -0.0051   -0.0007   -0.0040
           5    0.0076    0.0026    0.0163    0.0459    0.0154   -0.0073   -0.0030    0.0068
           6    0.0294   -0.0161    0.0038   -0.0393   -0.0328   -0.0067   -0.0129   -0.0026
           7   -0.0146   -0.0236   -0.0159   -0.0111   -0.0251    0.0033    0.0050   -0.0107
           8   -0.0277    0.0058    0.0338    0.0054   -0.0081   -0.0076    0.0052   -0.0149
           9   -0.0201    0.0083    0.0062    0.0055   -0.0022   -0.0106   -0.0185    0.0074
          10   -0.0010   -0.0269    0.0467    0.0069    0.0033    0.0249    0.0061    0.0246
          11    0.0133    0.0193   -0.0020    0.0050   -0.0063   -0.0089    0.0016    0.0264
          12    0.0086   -0.0049    0.0220    0.0109   -0.0098    0.0115    0.0009   -0.0126
          13   -0.0023    0.0342   -0.0147   -0.0089    0.0198    0.0183    0.0151   -0.0029
          14    0.0291   -0.0037    0.0075   -0.0124   -0.0033    0.0215   -0.0054    0.0041
          15    0.0193   -0.0052    0.0097   -0.0075   -0.0136   -0.0012    0.0124   -0.0025
          16   -0.0112   -0.0030   -0.0044   -0.0084    0.0124    0.0049    0.0003    0.0080
          17    0.0164    0.0116    0.0098    0.0119   -0.0122   -0.0052    0.0011    0.0056
          18    0.0078    0.0150   -0.0007    0.0059   -0.0122   -0.0043    0.0018   -0.0023
          19   -0.0122    0.0353    0.0181   -0.0207   -0.0010   -0.0380   -0.0181    0.0039
          20   -0.0212   -0.0185   -0.0054   -0.0303    0.0402    0.0025   -0.0288    0.0000
          21   -0.0131    0.0245   -0.0162   -0.0100   -0.0024   -0.0117    0.0154    0.0024
          22    0.0089    0.0331    0.0117   -0.0155    0.0062   -0.0016    0.0046    0.0009
          23    0.0126    0.0148   -0.0236   -0.0156    0.0065    0.0489    0.0089   -0.0041
          24    0.0038   -0.0097   -0.0155   -0.0103    0.0364    0.0365    0.0344   -0.0013
          25    0.0357   -0.0021   -0.0190    0.0420    0.0076   -0.0156   -0.0076    0.0026
          26   -0.0088   -0.0266   -0.0211    0.0157   -0.0084   -0.0124   -0.0049   -0.0003
          27   -0.0171   -0.0150   -0.0130    0.0341    0.0048   -0.0078   -0.0014    0.0007
          28   -0.0268   -0.0469    0.0471   -0.0005   -0.0296    0.0320    0.0226   -0.0438
          29   -0.0322    0.0195   -0.0368   -0.0329   -0.0289   -0.0274    0.0345    0.0016
          30   -0.0045    0.0014    0.0016   -0.0192    0.0414   -0.0295    0.0044    0.0013
          31    0.0212   -0.0385   -0.0632    0.0046   -0.0200   -0.0191   -0.0241    0.0030
          32    0.0263   -0.0002    0.0239    0.0413    0.0047   -0.0213    0.0035    0.0021
          33    0.0416   -0.0169    0.0105   -0.0403   -0.0394   -0.0156   -0.0073   -0.0058
          34    0.0328   -0.0263    0.0823    0.0227    0.0639    0.0156   -0.0153   -0.1080
          35    0.0271    0.0312    0.0055    0.0146   -0.0037   -0.0155   -0.0035   -0.0865
          36    0.0226    0.0045    0.0305    0.0194   -0.0010    0.0047   -0.0053   -0.1077
          37   -0.0157   -0.0326    0.0445   -0.0027   -0.0084    0.0266    0.0049    0.0263
          38    0.0431    0.0299    0.0132    0.0229    0.0256   -0.0170   -0.0058   -0.0498
          39   -0.0198   -0.0091   -0.0118   -0.0037   -0.0558    0.0238    0.0236    0.1750
          40   -0.0414   -0.0125   -0.0258   -0.0238    0.0039   -0.0067    0.0044   -0.0141
          41    0.0279   -0.0242    0.0305   -0.0567    0.0172   -0.0477   -0.0752    0.0126
          42   -0.0643    0.0314    0.0090    0.0535   -0.0223    0.0207    0.0448   -0.0146
          43   -0.0131   -0.0322   -0.0279   -0.0423   -0.0787    0.0160    0.0110   -0.0343
          44   -0.0846    0.0349    0.0385    0.0673   -0.0357    0.0311    0.0879   -0.0459
          45   -0.0647    0.0315    0.0097    0.0542   -0.0240    0.0196    0.0468   -0.0173
          46    0.0181    0.0108    0.0083   -0.0482    0.0267   -0.0324    0.0562   -0.0078
          47    0.0446   -0.0219    0.0318   -0.0430    0.0048   -0.0254    0.0291    0.0016
          48   -0.0201    0.0490    0.0279    0.0679    0.0025    0.0418   -0.0393    0.0195
          49   -0.0329    0.0930   -0.0204    0.0461    0.0052    0.0917   -0.0592    0.0100
          50    0.0652   -0.0322    0.0129   -0.0858   -0.0331   -0.0178    0.0194   -0.0115
          51    0.0320   -0.0037    0.0109   -0.0372   -0.0398   -0.0019    0.0008   -0.0084
          52   -0.0117    0.0108   -0.0300   -0.0188    0.0261   -0.0172   -0.0083   -0.0085
          53    0.0206    0.0026    0.0249    0.0198   -0.0170    0.0059   -0.0022   -0.1046
          54    0.0103    0.0113    0.0046    0.0090   -0.0128   -0.0009   -0.0018   -0.0775
          55   -0.0204    0.0082   -0.0352   -0.0195    0.0200   -0.0181   -0.0119   -0.0613
          56    0.0260    0.0020    0.0364    0.0217   -0.0166    0.0140    0.0091    0.0327
          57    0.0092    0.0077    0.0196    0.0120   -0.0220    0.0111    0.0157    0.1280
          58   -0.0156   -0.0016   -0.0116   -0.0104    0.0120   -0.0001   -0.0036   -0.0273
          59    0.0074    0.0218   -0.0166    0.0037   -0.0092   -0.0255   -0.0080   -0.0478
          60   -0.0015    0.0433   -0.0563   -0.0151    0.0047   -0.0501   -0.0107    0.0071
          61    0.0396    0.0278    0.0259   -0.0047   -0.0171    0.0339   -0.0067    0.0000
          62    0.0256    0.0214   -0.0200   -0.0201    0.0002   -0.0470    0.1642   -0.0011
          63   -0.0101   -0.0174   -0.0185   -0.0060    0.0427    0.1414   -0.1338   -0.0045
          64   -0.0001    0.0561    0.0087   -0.0195   -0.0081   -0.0113   -0.0299   -0.0003
          65   -0.0305   -0.0759    0.0198   -0.0435    0.1085   -0.0869    0.0722    0.0165
          66   -0.0351    0.0551   -0.0279    0.0092   -0.1010    0.0563   -0.1220   -0.0120
          67    0.0173   -0.0169   -0.0358    0.0205   -0.0061   -0.0121   -0.0030   -0.0059
          68   -0.0336   -0.0452   -0.0426   -0.0168   -0.0280   -0.0074    0.0020   -0.0124
          69   -0.0334   -0.0417   -0.0365    0.0493    0.0008   -0.0121   -0.0041   -0.0009


   Root No.      17        18        19        20        21        22        23        24

                17 A      18 A      19 A      20 A      21 A      22 A      23 A      24 A   

                 886.1     929.4     938.1     965.2     993.0    1012.7    1043.3    1062.4
  
           1    0.0077   -0.0037    0.0082    0.0049   -0.0138    0.0219   -0.0044    0.0033
           2    0.0000    0.0010   -0.0183    0.0027    0.0065    0.0030    0.0060    0.0038
           3   -0.0002   -0.0149    0.0246    0.0029    0.0124   -0.0031    0.0155   -0.0067
           4   -0.0004    0.0042    0.0033   -0.0034   -0.0027   -0.0058   -0.0124   -0.0073
           5   -0.0010    0.0008   -0.0043    0.0072   -0.0008    0.0110   -0.0019    0.0134
           6   -0.0011    0.0110   -0.0035   -0.0260   -0.0158   -0.0013    0.0176   -0.0037
           7    0.0225   -0.0091    0.0149    0.0154    0.0132   -0.0092    0.0010    0.0056
           8    0.0025    0.0400    0.0234   -0.0167    0.0069   -0.0169   -0.0090   -0.0168
           9    0.0192    0.0483   -0.0001    0.0064    0.0085    0.0075   -0.0056    0.0082
          10   -0.0096    0.0038   -0.0133    0.0000    0.0026    0.0190   -0.0009   -0.0086
          11    0.0016   -0.0021    0.0051    0.0025    0.0031    0.0144    0.0014   -0.0077
          12   -0.0044    0.0026   -0.0071   -0.0003   -0.0031   -0.0053    0.0018    0.0016
          13   -0.0145    0.0317    0.0120   -0.0177    0.0029    0.0134    0.0323    0.0094
          14    0.0384   -0.0257   -0.0092    0.0095   -0.0086   -0.0073    0.0170   -0.0053
          15   -0.0138   -0.0246    0.0076    0.0223    0.0175   -0.0005   -0.0182    0.0071
          16   -0.0077    0.0050   -0.0161   -0.0062    0.0115   -0.0241    0.0036    0.0047
          17    0.0035   -0.0033    0.0192   -0.0002   -0.0130   -0.0031   -0.0056    0.0037
          18    0.0027    0.0006   -0.0057   -0.0014    0.0065    0.0017   -0.0015   -0.0002
          19   -0.0050   -0.0250   -0.0196    0.0003   -0.0121   -0.0084   -0.0253   -0.0040
          20   -0.0289   -0.0130   -0.0153    0.0207   -0.0182   -0.0080    0.0060   -0.0020
          21    0.0034   -0.0133   -0.0185   -0.0228   -0.0090    0.0030   -0.0207    0.0067
          22    0.0051   -0.0021   -0.0006    0.0085   -0.0005   -0.0051   -0.0120   -0.0057
          23   -0.0111    0.0023    0.0077   -0.0100    0.0100    0.0076   -0.0418    0.0129
          24    0.0097    0.0183   -0.0078    0.0206   -0.0185   -0.0065   -0.0015   -0.0179
          25   -0.0086    0.0009   -0.0046   -0.0068    0.0003   -0.0014    0.0096   -0.0029
          26   -0.0047    0.0000   -0.0017   -0.0045    0.0017   -0.0017    0.0082   -0.0026
          27   -0.0032   -0.0009   -0.0007    0.0012    0.0008    0.0005   -0.0037    0.0000
          28    0.0009   -0.0204    0.0653   -0.0175   -0.0874   -0.0046    0.0042    0.0513
          29    0.0217   -0.0461   -0.0201   -0.0396    0.0810    0.0114    0.0863    0.0538
          30    0.0093   -0.0420    0.0258   -0.0215    0.0446    0.0003    0.0592    0.0241
          31    0.0142    0.0188   -0.0194   -0.0016   -0.0336   -0.0047   -0.0805    0.0218
          32   -0.0569   -0.0298    0.0059   -0.0175    0.0058    0.0342    0.0034   -0.0127
          33   -0.0409   -0.0142    0.0042   -0.0416   -0.0102    0.0158    0.0227   -0.0216
          34   -0.0116   -0.0035    0.0356   -0.0129   -0.0426   -0.0819    0.0079    0.0360
          35    0.0119    0.0076   -0.0536    0.0075    0.0251    0.0470   -0.0083   -0.0156
          36    0.0034    0.0080   -0.0414    0.0017    0.0064    0.0056   -0.0040    0.0020
          37   -0.0037   -0.0020   -0.0314    0.0187    0.0102    0.1047   -0.0070   -0.0343
          38   -0.0016    0.0042    0.0253   -0.0189   -0.0126   -0.0963    0.0067    0.0292
          39   -0.0139    0.0044    0.0046   -0.0061    0.0093    0.0006    0.0066   -0.0087
          40    0.0345   -0.0505    0.0594    0.0830    0.1280   -0.0414    0.0262   -0.0694
          41    0.0635    0.1747    0.0182    0.0065    0.0278   -0.0038   -0.0315   -0.0027
          42   -0.0284   -0.0570    0.0052   -0.0122   -0.0067   -0.0016    0.0137   -0.0030
          43    0.0459    0.0111   -0.0095   -0.0238   -0.0403   -0.0469    0.0133    0.1010
          44   -0.0577   -0.0851    0.0368   -0.0483   -0.0100   -0.0336    0.0154   -0.0361
          45   -0.0285   -0.0502    0.0110   -0.0192   -0.0049   -0.0060    0.0142   -0.0069
          46   -0.0803    0.0502    0.0361    0.0116    0.0424    0.0422    0.0695    0.1204
          47   -0.0145   -0.0140    0.0098    0.0431    0.0270    0.0195    0.0589    0.1115
          48    0.1124   -0.0715   -0.0293    0.0702   -0.0047   -0.0123    0.0521    0.0953
          49    0.1069   -0.0092   -0.0138   -0.0636   -0.0348   -0.0066    0.1493   -0.0797
          50   -0.0547   -0.0290    0.0242   -0.0369    0.0239    0.0079    0.0511   -0.0786
          51   -0.0334   -0.0423    0.0204   -0.0270    0.0255    0.0022    0.0464   -0.0764
          52    0.0095   -0.0117    0.0455    0.0095   -0.0309    0.0246   -0.0039   -0.0023
          53    0.0062    0.0134   -0.0846    0.0025    0.0509    0.0378    0.0043   -0.0144
          54    0.0076    0.0085   -0.0635    0.0031    0.0420    0.0373    0.0041   -0.0134
          55    0.0166   -0.0105    0.0175    0.0178   -0.0146    0.0645   -0.0007   -0.0152
          56   -0.0145    0.0124   -0.0283   -0.0178    0.0196   -0.0617   -0.0001    0.0151
          57   -0.0202    0.0049    0.0255   -0.0247   -0.0081   -0.0986   -0.0051    0.0285
          58    0.0001    0.0023   -0.0188    0.0018    0.0109    0.0094    0.0027   -0.0041
          59    0.0250   -0.0175    0.0529    0.0194   -0.0378    0.0696   -0.0119   -0.0115
          60    0.0363   -0.0375    0.1401    0.0258   -0.0850    0.0791   -0.0188   -0.0063
          61    0.0525   -0.0398    0.0454    0.0396    0.0713   -0.0115   -0.0479   -0.0021
          62    0.0054    0.0663   -0.0323    0.1036   -0.0493   -0.0225    0.0237   -0.0308
          63   -0.0081   -0.0526    0.0355   -0.1016    0.0458    0.0266   -0.0729    0.0306
          64   -0.0221   -0.0110   -0.0108    0.0305   -0.0001   -0.0306   -0.0671   -0.0267
          65    0.0782   -0.0634   -0.0414   -0.1125   -0.0186    0.0348    0.0118    0.0349
          66   -0.1261    0.0236   -0.0021    0.1130   -0.0497    0.0000    0.1018    0.0176
          67   -0.0035    0.0046    0.0071   -0.0086    0.0047   -0.0167   -0.0022   -0.0189
          68    0.0024    0.0055    0.0153   -0.0072    0.0084   -0.0240   -0.0074   -0.0258
          69   -0.0024   -0.0008    0.0004    0.0010    0.0006   -0.0038   -0.0109   -0.0043


   Root No.      25        26        27        28        29        30        31        32

                25 A      26 A      27 A      28 A      29 A      30 A      31 A      32 A   

                1065.7    1088.0    1095.1    1122.4    1123.9    1133.4    1142.6    1160.1
  
           1   -0.0066    0.0134   -0.0061    0.0007   -0.0087   -0.0236    0.0138    0.0078
           2    0.0051    0.0035   -0.0044    0.0103   -0.0112    0.0204   -0.0067   -0.0164
           3    0.0164   -0.0022    0.0021   -0.0025    0.0212   -0.0088   -0.0008    0.0208
           4    0.0096    0.0133   -0.0057   -0.0141    0.0120   -0.0107   -0.0105    0.0018
           5   -0.0058    0.0051    0.0239    0.0054   -0.0085    0.0052    0.0106    0.0119
           6    0.0062   -0.0163    0.0099    0.0067    0.0196   -0.0228   -0.0037   -0.0181
           7   -0.0201   -0.0109    0.0271   -0.0006    0.0043   -0.0040    0.0047    0.0194
           8    0.0056   -0.0023   -0.0089   -0.0175    0.0166   -0.0027   -0.0157    0.0028
           9   -0.0046    0.0066    0.0001    0.0101   -0.0160    0.0058    0.0115   -0.0024
          10    0.0089   -0.0153    0.0013   -0.0101    0.0001    0.0174   -0.0065   -0.0111
          11    0.0010    0.0035   -0.0053   -0.0035    0.0325    0.0059    0.0202    0.0005
          12   -0.0040    0.0001   -0.0051    0.0255    0.0164    0.0354   -0.0120   -0.0053
          13   -0.0087    0.0055    0.0023   -0.0020    0.0005   -0.0012   -0.0018    0.0003
          14   -0.0017    0.0055   -0.0010   -0.0060    0.0052   -0.0052   -0.0064   -0.0044
          15   -0.0058    0.0070   -0.0257   -0.0086   -0.0106    0.0098   -0.0001    0.0056
          16   -0.0018    0.0104   -0.0025    0.0120   -0.0010   -0.0097   -0.0050    0.0070
          17   -0.0007   -0.0011    0.0018    0.0068   -0.0247   -0.0138   -0.0177    0.0037
          18    0.0057   -0.0061    0.0083   -0.0284   -0.0234   -0.0230    0.0067   -0.0028
          19   -0.0039   -0.0054    0.0002    0.0005   -0.0013    0.0006    0.0030   -0.0030
          20    0.0042   -0.0031    0.0006   -0.0035   -0.0013   -0.0023    0.0003    0.0041
          21   -0.0238   -0.0006   -0.0060   -0.0026   -0.0007    0.0062   -0.0025   -0.0033
          22    0.0091   -0.0016    0.0028    0.0041   -0.0001   -0.0011    0.0065   -0.0002
          23   -0.0038   -0.0064    0.0007    0.0032   -0.0018   -0.0048    0.0041   -0.0034
          24    0.0060   -0.0021    0.0071    0.0034   -0.0053   -0.0038    0.0055    0.0017
          25   -0.0008   -0.0168   -0.0163    0.0075   -0.0039    0.0019    0.0027   -0.0067
          26   -0.0037   -0.0184   -0.0085    0.0103   -0.0051    0.0012    0.0069   -0.0033
          27    0.0009    0.0039    0.0037    0.0002   -0.0012    0.0027    0.0000   -0.0001
          28    0.0415    0.0992   -0.0695    0.0896    0.0041   -0.0383    0.1278   -0.0865
          29    0.1810    0.0039    0.0179    0.0457   -0.0711    0.0140    0.0166   -0.0355
          30    0.1134    0.0040    0.0081    0.0245   -0.0092   -0.0124    0.0199    0.0046
          31    0.0911    0.1962    0.0458   -0.0837    0.0196    0.0806   -0.0803   -0.0292
          32   -0.0273    0.0790    0.2100    0.0193    0.0082    0.0022    0.0050    0.0162
          33   -0.0116    0.0346    0.1438    0.0185    0.0320   -0.0277   -0.0064   -0.0163
          34    0.0075   -0.0390    0.0293   -0.0514   -0.0804    0.0879   -0.0005   -0.0783
          35   -0.0155    0.0502   -0.0380    0.1093    0.0648   -0.0449   -0.0339    0.0678
          36   -0.0158    0.0295   -0.0242    0.1020    0.0295    0.0091   -0.0511    0.0362
          37    0.0377   -0.0315   -0.0059    0.0253   -0.0345   -0.0156   -0.0870    0.0086
          38   -0.0344    0.0288    0.0016   -0.0278    0.0488    0.0346    0.0947   -0.0217
          39   -0.0043   -0.0126    0.0006   -0.0295    0.0949    0.0774    0.0697   -0.0174
          40   -0.1020    0.0196    0.0618    0.0441   -0.0133   -0.0003   -0.0074   -0.1322
          41   -0.0069    0.0125   -0.0126   -0.0059   -0.0152    0.0144    0.0008   -0.0011
          42    0.0062   -0.0045    0.0048    0.0026    0.0090   -0.0076   -0.0003   -0.0007
          43    0.0259   -0.0923    0.0675   -0.0078    0.0055    0.1028    0.0178    0.1431
          44    0.0307   -0.0169   -0.0021   -0.0352    0.0577   -0.0207   -0.0381    0.0070
          45    0.0152   -0.0052    0.0051   -0.0028    0.0168   -0.0094   -0.0052    0.0009
          46   -0.0421    0.0079   -0.0201   -0.0293    0.0256    0.0066   -0.0478   -0.0186
          47   -0.0365    0.0055   -0.0193   -0.0343    0.0363   -0.0016   -0.0570   -0.0285
          48   -0.0198   -0.0039   -0.0207   -0.0365    0.0542   -0.0196   -0.0642   -0.0439
          49   -0.0214    0.0423   -0.0060   -0.0162   -0.0278    0.0407   -0.0157    0.0195
          50   -0.0372    0.0463   -0.0311   -0.0104   -0.0755    0.0753    0.0136    0.0483
          51   -0.0346    0.0469   -0.0499   -0.0162   -0.0764    0.0797    0.0091    0.0480
          52    0.0003   -0.0089   -0.0047    0.0226    0.0064    0.0323   -0.0186   -0.0058
          53    0.0143   -0.0111    0.0140   -0.0841   -0.0053   -0.0406    0.0527   -0.0076
          54    0.0169   -0.0171    0.0169   -0.0889   -0.0106   -0.0337    0.0514   -0.0127
          55    0.0072   -0.0187   -0.0024   -0.0060    0.0311    0.0446    0.0076   -0.0144
          56   -0.0047    0.0201    0.0027    0.0044   -0.0408   -0.0574   -0.0118    0.0176
          57   -0.0077    0.0225    0.0041    0.0332   -0.0805   -0.0704   -0.0516    0.0264
          58    0.0023    0.0002   -0.0008   -0.0084    0.0093    0.0008    0.0102   -0.0025
          59    0.0061   -0.0253    0.0050   -0.0190   -0.0146    0.0110   -0.0047   -0.0122
          60    0.0102   -0.0407    0.0097   -0.0003   -0.0463    0.0217   -0.0412   -0.0114
          61    0.0729    0.0353   -0.0553    0.0062    0.0142    0.0133    0.0401    0.0769
          62    0.0183    0.0011    0.0082    0.0044   -0.0033   -0.0028    0.0074    0.0046
          63   -0.0194   -0.0091   -0.0029    0.0010   -0.0044   -0.0060    0.0021   -0.0061
          64    0.0432   -0.0480    0.0379    0.0334    0.0115    0.0158   -0.0101   -0.0259
          65   -0.0844    0.0508   -0.0518   -0.0400   -0.0214   -0.0109    0.0153    0.0217
          66   -0.0224    0.0474   -0.0410   -0.0463   -0.0080   -0.0298    0.0207    0.0420
          67    0.0079   -0.0073   -0.0497   -0.0237    0.0214   -0.0153   -0.0287   -0.0113
          68    0.0080   -0.0073   -0.0578   -0.0337    0.0308   -0.0236   -0.0377   -0.0101
          69    0.0058    0.0087   -0.0016   -0.0066    0.0047    0.0001   -0.0073   -0.0022


   Root No.      33        34        35        36        37        38        39        40

                33 A      34 A      35 A      36 A      37 A      38 A      39 A      40 A   

                1163.3    1188.5    1208.0    1258.9    1272.6    1331.3    1357.6    1370.3
  
           1    0.0041   -0.0197    0.0012   -0.0174   -0.0252   -0.0293    0.0358   -0.0221
           2    0.0126    0.0228   -0.0127   -0.0219    0.0119   -0.0012    0.0423    0.0156
           3   -0.0110    0.0160    0.0031   -0.0070    0.0071   -0.0076    0.0266    0.0090
           4    0.0087   -0.0149   -0.0221   -0.0083    0.0325    0.0301   -0.0077    0.0028
           5   -0.0049   -0.0092    0.0199   -0.0227    0.0274    0.0289   -0.0071   -0.0144
           6    0.0083    0.0045    0.0270   -0.0181    0.0015    0.0098   -0.0081   -0.0054
           7   -0.0058   -0.0137   -0.0017   -0.0245    0.0087   -0.0070   -0.0316    0.0175
           8   -0.0025   -0.0019    0.0046    0.0082   -0.0036   -0.0014   -0.0028   -0.0018
           9    0.0005   -0.0044   -0.0158    0.0074    0.0009    0.0012   -0.0032    0.0001
          10    0.0049   -0.0034    0.0020    0.0109   -0.0139    0.0285   -0.0011    0.0098
          11   -0.0109    0.0080   -0.0021   -0.0012    0.0200   -0.0243   -0.0099   -0.0100
          12    0.0152   -0.0080   -0.0026   -0.0055    0.0148   -0.0168   -0.0056   -0.0076
          13    0.0023    0.0012    0.0102   -0.0033    0.0166    0.0055    0.0223    0.0156
          14    0.0005   -0.0068   -0.0027    0.0080    0.0172    0.0030    0.0215    0.0023
          15   -0.0076   -0.0122    0.0023    0.0053    0.0207    0.0062    0.0190   -0.0064
          16   -0.0029    0.0053   -0.0007   -0.0029    0.0057   -0.0050    0.0026    0.0003
          17    0.0012    0.0004    0.0017    0.0020   -0.0026   -0.0012   -0.0063   -0.0070
          18   -0.0076    0.0111   -0.0007    0.0000    0.0017   -0.0066   -0.0067   -0.0107
          19   -0.0018   -0.0072    0.0010    0.0094    0.0000    0.0004   -0.0131   -0.0031
          20   -0.0026   -0.0015   -0.0048   -0.0044   -0.0141    0.0152   -0.0155   -0.0073
          21    0.0008    0.0094   -0.0071   -0.0084   -0.0095    0.0143   -0.0100   -0.0047
          22    0.0039   -0.0057    0.0076    0.0154    0.0085   -0.0177    0.0000    0.0067
          23    0.0014   -0.0045    0.0025    0.0078   -0.0090   -0.0118   -0.0089   -0.0020
          24   -0.0015   -0.0045    0.0000    0.0050   -0.0120   -0.0084   -0.0090   -0.0032
          25   -0.0011    0.0101    0.0023    0.0092   -0.0191   -0.0150    0.0043    0.0010
          26   -0.0011    0.0092    0.0106    0.0002   -0.0164   -0.0145   -0.0026    0.0096
          27   -0.0006    0.0018    0.0004    0.0014   -0.0035   -0.0029   -0.0005    0.0011
          28   -0.1012    0.1034   -0.0495    0.0458    0.0459    0.0611   -0.0522    0.0309
          29    0.0347   -0.1283   -0.0016    0.0294   -0.0157   -0.0052   -0.0516   -0.0256
          30   -0.0072   -0.0536    0.0045    0.0258   -0.0022   -0.0015   -0.0293   -0.0085
          31   -0.0526    0.0273    0.1326   -0.0081   -0.0594   -0.0455    0.0063    0.0029
          32    0.0404    0.0236   -0.1241    0.0633   -0.0197   -0.0206    0.0158    0.0045
          33    0.0418    0.0277   -0.0780    0.0427   -0.0319   -0.0261    0.0077    0.0100
          34    0.0589    0.0180   -0.0291   -0.0336    0.0551   -0.0309   -0.0034    0.0130
          35   -0.0257   -0.0405    0.0239    0.0322   -0.0575    0.0632    0.0127    0.0308
          36    0.0119   -0.0418    0.0127    0.0143   -0.0329    0.0410    0.0105    0.0251
          37   -0.0251    0.0815   -0.0022    0.0210    0.0792   -0.0286   -0.0533   -0.0061
          38    0.0289   -0.0857    0.0000   -0.0220   -0.0806    0.0252    0.0526   -0.0030
          39    0.0105   -0.0535    0.0045    0.0171   -0.0413    0.0587    0.0113    0.0406
          40   -0.0048    0.0450    0.1175    0.0851   -0.0126    0.0570    0.0067   -0.0609
          41   -0.0026   -0.0142   -0.0262    0.0344   -0.0051   -0.0065   -0.0677    0.0390
          42    0.0007    0.0053    0.0082   -0.0116    0.0022    0.0046    0.0410   -0.0273
          43   -0.0625    0.0774    0.0382    0.1293    0.0025    0.0357    0.0581   -0.0508
          44   -0.0032    0.0052    0.0305    0.0051   -0.0056   -0.0101   -0.0548    0.0394
          45   -0.0003    0.0018    0.0034    0.0051    0.0001   -0.0038   -0.0377    0.0273
          46   -0.0301    0.0208   -0.0267   -0.0346   -0.0548    0.0217   -0.0405   -0.0600
          47   -0.0340    0.0112   -0.0473   -0.0174   -0.0577    0.0065   -0.0439   -0.0439
          48   -0.0296   -0.0021   -0.0643    0.0198   -0.0486   -0.0560   -0.0348    0.1105
          49   -0.0370    0.0143   -0.0250   -0.0396   -0.0464    0.0398   -0.0392   -0.1018
          50   -0.0545   -0.0152   -0.0367   -0.0059   -0.0214   -0.0246   -0.0338    0.0716
          51   -0.0600   -0.0145   -0.0333   -0.0157   -0.0273   -0.0052   -0.0409    0.0131
          52    0.0132   -0.0066   -0.0013    0.0008    0.0073   -0.0020   -0.0074    0.0050
          53   -0.0254    0.0166    0.0005    0.0065   -0.0257    0.0497    0.0317    0.0490
          54   -0.0220    0.0186   -0.0012    0.0042   -0.0166    0.0341    0.0209    0.0340
          55    0.0084   -0.0041   -0.0027   -0.0006    0.0183   -0.0306   -0.0290   -0.0316
          56   -0.0127    0.0116    0.0017   -0.0008   -0.0111    0.0160    0.0208    0.0156
          57   -0.0040    0.0079    0.0045    0.0029   -0.0229    0.0465    0.0301    0.0518
          58   -0.0047    0.0074   -0.0016   -0.0009    0.0030    0.0040    0.0091    0.0095
          59    0.0058   -0.0105    0.0045    0.0113   -0.0298    0.0462    0.0230    0.0324
          60    0.0239   -0.0319    0.0107    0.0183   -0.0560    0.0797    0.0350    0.0515
          61    0.1661    0.1622   -0.0218   -0.0635   -0.0890    0.0549   -0.0544   -0.0177
          62    0.0145    0.0111   -0.0035    0.0006   -0.0218   -0.0058   -0.0157   -0.0043
          63   -0.0144   -0.0209    0.0058    0.0135   -0.0012   -0.0154   -0.0045   -0.0021
          64   -0.0811   -0.0035   -0.0500   -0.0598   -0.0406    0.0240    0.0128   -0.0194
          65    0.0981    0.0034    0.0524    0.0754    0.0353   -0.0123   -0.0456    0.0121
          66    0.0914   -0.0130    0.0616    0.0817    0.0335   -0.0167   -0.0455    0.0120
          67    0.0086   -0.0117   -0.0866    0.0587    0.0038    0.0119    0.0330   -0.0581
          68    0.0129   -0.0216   -0.1183    0.0733    0.0148    0.0229    0.0396   -0.0769
          69    0.0017   -0.0011   -0.0170    0.0136   -0.0011    0.0004    0.0064   -0.0106


   Root No.      41        42        43        44        45        46        47        48

                41 A      42 A      43 A      44 A      45 A      46 A      47 A      48 A   

                1389.2    1395.5    1402.2    1406.1    1410.1    1419.5    1426.5    1438.6
  
           1    0.0092    0.0034    0.0337    0.0028    0.0004   -0.0014    0.0087    0.0040
           2   -0.0052    0.0051   -0.0070   -0.0019    0.0002    0.0122   -0.0020   -0.0408
           3   -0.0042    0.0000   -0.0034   -0.0015    0.0002    0.0053   -0.0004   -0.0266
           4    0.0141    0.0123    0.0150    0.0030    0.0002   -0.0260    0.0388   -0.0223
           5    0.0198   -0.0100    0.0094    0.0025   -0.0003    0.0274   -0.0101   -0.0132
           6    0.0128   -0.0076    0.0048    0.0013   -0.0003    0.0127   -0.0032   -0.0079
           7   -0.0185   -0.0127   -0.0291   -0.0030   -0.0012    0.0113   -0.0232    0.0111
           8    0.0066   -0.0175   -0.0221   -0.0041    0.0004   -0.0241    0.0113    0.0110
           9   -0.0010    0.0012   -0.0011   -0.0001    0.0000   -0.0032    0.0010    0.0045
          10    0.0044    0.0175   -0.0298   -0.0022    0.0069    0.0033   -0.0049   -0.0129
          11   -0.0013   -0.0102    0.0142    0.0035   -0.0050    0.0048    0.0150    0.0230
          12    0.0040    0.0066   -0.0091    0.0068    0.0015    0.0185    0.0222    0.0219
          13    0.0150    0.0113    0.0031   -0.0029    0.0021   -0.0079   -0.0223    0.0412
          14   -0.0150    0.0139   -0.0038   -0.0025    0.0012   -0.0152   -0.0075    0.0254
          15   -0.0257    0.0127   -0.0058   -0.0020    0.0007   -0.0129   -0.0040    0.0174
          16   -0.0013   -0.0025    0.0023   -0.0050   -0.0375    0.0059    0.0074    0.0064
          17    0.0070    0.0115   -0.0043   -0.0331    0.0075   -0.0121   -0.0158   -0.0153
          18    0.0097    0.0131   -0.0067    0.0148   -0.0017   -0.0209   -0.0248   -0.0218
          19   -0.0025   -0.0027   -0.0015    0.0008   -0.0005    0.0004    0.0044   -0.0026
          20    0.0055    0.0048    0.0048    0.0001    0.0009   -0.0083   -0.0062    0.0288
          21    0.0046    0.0052    0.0039   -0.0002    0.0005   -0.0063   -0.0061    0.0257
          22   -0.0066   -0.0098   -0.0085    0.0006   -0.0014    0.0121    0.0083   -0.0344
          23   -0.0001   -0.0078   -0.0001    0.0013   -0.0010    0.0067    0.0077   -0.0183
          24    0.0019   -0.0059    0.0017    0.0012   -0.0006    0.0042    0.0052   -0.0103
          25   -0.0062   -0.0015   -0.0041   -0.0010    0.0000    0.0024   -0.0068    0.0057
          26   -0.0086    0.0044   -0.0043   -0.0008    0.0000   -0.0129    0.0070    0.0027
          27   -0.0017    0.0003   -0.0009   -0.0001    0.0000   -0.0016    0.0011   -0.0002
          28   -0.0125   -0.0045   -0.0415   -0.0121   -0.0046    0.0007   -0.0160   -0.0070
          29    0.0102   -0.0063    0.0042    0.0085    0.0041   -0.0108    0.0090    0.0436
          30    0.0025   -0.0060   -0.0038    0.0033    0.0026   -0.0068    0.0032    0.0166
          31   -0.0114   -0.0185   -0.0210   -0.0043   -0.0001    0.0279   -0.0471    0.0302
          32   -0.0228    0.0094   -0.0112   -0.0025    0.0007   -0.0205    0.0056    0.0114
          33   -0.0190    0.0078   -0.0101   -0.0024    0.0004   -0.0249    0.0104    0.0099
          34   -0.0460   -0.1077    0.1316   -0.0083   -0.0537   -0.0615   -0.0417   -0.0096
          35   -0.0208   -0.0353    0.0373   -0.0168   -0.0124   -0.0514   -0.0565   -0.0513
          36   -0.0219   -0.0399    0.0433   -0.0097   -0.0173   -0.0405   -0.0425   -0.0356
          37   -0.0112   -0.0336    0.0238    0.0079   -0.0183   -0.0046    0.0135    0.0402
          38    0.0294    0.0746   -0.0746   -0.0029    0.0341    0.0388    0.0172   -0.0230
          39   -0.0445   -0.0892    0.1004   -0.0197   -0.0392   -0.0834   -0.0781   -0.0566
          40    0.0569    0.0096    0.0632    0.0083    0.0034   -0.0015    0.0281    0.0020
          41   -0.0545    0.1078    0.1008    0.0216   -0.0035    0.0508   -0.0207   -0.0022
          42    0.0402   -0.0814   -0.0813   -0.0180    0.0029   -0.0512    0.0216    0.0112
          43    0.0444    0.0247    0.0496    0.0074    0.0054   -0.0096    0.0371   -0.0115
          44   -0.0494    0.1013    0.1026    0.0217   -0.0033    0.0628   -0.0235   -0.0210
          45   -0.0376    0.0796    0.0806    0.0169   -0.0022    0.0541   -0.0212   -0.0176
          46   -0.0503   -0.0085   -0.0029    0.0045   -0.0027    0.0007    0.0336   -0.0433
          47   -0.0403   -0.0096   -0.0019    0.0050   -0.0030   -0.0034    0.0441   -0.0549
          48    0.1450   -0.0136    0.0321    0.0030    0.0010   -0.0021    0.0145   -0.0099
          49   -0.1032   -0.0070   -0.0140    0.0048   -0.0037    0.0011    0.0395   -0.0546
          50    0.1195   -0.0194    0.0268    0.0033    0.0005    0.0177   -0.0002   -0.0105
          51    0.0432   -0.0176    0.0129    0.0047   -0.0015    0.0146    0.0193   -0.0375
          52   -0.0127   -0.0242    0.0197    0.0695    0.3461   -0.0118   -0.0095   -0.0053
          53   -0.0376   -0.0464    0.0275   -0.1183    0.0126    0.0645    0.0716    0.0564
          54   -0.0273   -0.0354    0.0219   -0.0592    0.0699    0.0377    0.0423    0.0330
          55    0.0222    0.0337   -0.0039   -0.1817    0.0422   -0.0276   -0.0334   -0.0338
          56   -0.0076   -0.0138   -0.0098    0.2216   -0.1191    0.0055    0.0077    0.0127
          57   -0.0448   -0.0584    0.0403   -0.1011    0.1893    0.0596    0.0661    0.0519
          58   -0.0088   -0.0189    0.0002    0.1892    0.0525   -0.0013    0.0029    0.0083
          59   -0.0183   -0.0284   -0.0103    0.2774    0.0470    0.0097    0.0126    0.0173
          60   -0.0236   -0.0177   -0.0129   -0.0588   -0.2043    0.0642    0.0644    0.0486
          61    0.0352    0.0018    0.0161    0.0012    0.0016   -0.0048   -0.0173    0.0526
          62    0.0046   -0.0075    0.0023    0.0015   -0.0009    0.0059    0.0059   -0.0115
          63   -0.0033   -0.0068   -0.0002    0.0012   -0.0009    0.0047    0.0081   -0.0176
          64    0.0105    0.0168    0.0203    0.0000    0.0026   -0.0149   -0.0077    0.0438
          65   -0.0102   -0.0183   -0.0208    0.0011   -0.0030    0.0115    0.0092   -0.0283
          66   -0.0111   -0.0196   -0.0210    0.0011   -0.0027    0.0109    0.0095   -0.0304
          67    0.0205   -0.0419    0.0002    0.0001   -0.0004    0.0960   -0.0802    0.0105
          68    0.0293   -0.0551    0.0012    0.0005   -0.0006    0.1253   -0.1022    0.0109
          69    0.0031   -0.0082   -0.0007   -0.0001   -0.0001    0.0183   -0.0154    0.0019


   Root No.      49        50        51        52        53        54        55        56

                49 A      50 A      51 A      52 A      53 A      54 A      55 A      56 A   

                1882.9    2831.8    2848.1    2946.2    2949.5    2958.6    3023.0    3029.9
  
           1    0.0131   -0.0001    0.0046    0.0000   -0.0003    0.0002    0.0000   -0.0005
           2   -0.0247    0.0014    0.0292   -0.0001   -0.0011    0.0009    0.0000    0.0005
           3   -0.0234   -0.0025   -0.0562    0.0002    0.0017   -0.0020   -0.0001   -0.0004
           4    0.0052   -0.0004    0.0002   -0.0001    0.0000   -0.0001    0.0001   -0.0001
           5   -0.0008    0.0385   -0.0016    0.0016    0.0000    0.0010   -0.0005    0.0001
           6   -0.0006   -0.0523    0.0023   -0.0022    0.0001   -0.0017   -0.0007    0.0000
           7   -0.0036   -0.0005    0.0006    0.0001    0.0004    0.0002   -0.0001    0.0001
           8    0.0026    0.0001    0.0004   -0.0001   -0.0001    0.0005    0.0004    0.0054
           9    0.0020    0.0029    0.0034    0.0025    0.0029   -0.0518    0.0006    0.0006
          10    0.0011   -0.0001   -0.0020   -0.0003   -0.0304   -0.0018    0.0000   -0.0154
          11   -0.0031   -0.0001   -0.0017   -0.0004   -0.0396   -0.0022    0.0000    0.0013
          12   -0.0031    0.0000    0.0011    0.0002    0.0178    0.0006    0.0000   -0.0273
          13   -0.0376    0.0009    0.0000   -0.0125    0.0001   -0.0005    0.0317   -0.0002
          14   -0.0097   -0.0034    0.0001    0.0437   -0.0005    0.0021   -0.0077    0.0000
          15   -0.0025    0.0015    0.0000   -0.0315    0.0003   -0.0014   -0.0198    0.0001
          16   -0.0005    0.0000    0.0001    0.0001    0.0017   -0.0007    0.0000    0.0032
          17    0.0010    0.0000    0.0005    0.0001    0.0021   -0.0005    0.0000   -0.0013
          18    0.0012    0.0000   -0.0001    0.0000   -0.0010   -0.0001    0.0000    0.0014
          19   -0.1972    0.0000    0.0001    0.0000   -0.0007   -0.0001   -0.0010   -0.0034
          20    0.0984    0.0000   -0.0009    0.0002   -0.0001    0.0001   -0.0006   -0.0014
          21    0.1236    0.0000   -0.0007   -0.0001    0.0000    0.0000   -0.0003   -0.0008
          22    0.2353    0.0000   -0.0005    0.0003    0.0001    0.0000    0.0001    0.0002
          23   -0.0455    0.0000    0.0002   -0.0004    0.0000    0.0000    0.0056    0.0012
          24   -0.0833    0.0000    0.0000   -0.0005    0.0000   -0.0001    0.0052    0.0011
[...]
 T-DIPOLE    0.0950        C  3 --  H 15          +11.7% ( 37.5%)     3.9%
 TRAVEL      0.1187        C  4 --  H 13          +10.5% ( 35.6%)     2.7%
 RED. MASS   0.2179        C  4 --  H 12          +10.4% ( 35.5%)     3.1%
 EFF. MASS   3.4296

 VIBRATION   43   43A       ATOM PAIR        ENERGY CONTRIBUTION    RADIAL
 FREQ.      1402.15        C  3 --  H 14          +12.5% ( 43.2%)     3.1%
 T-DIPOLE    0.2059        C  3 --  H 15          +12.1% ( 42.4%)     2.8%
 TRAVEL      0.1002        C  4 --  H 12          +11.9% ( 42.0%)     2.7%
 RED. MASS   0.5012        C  1 --  C  3          +11.3% ( 40.9%)    86.4%
 EFF. MASS   4.7916        C  1 --  C  4          +11.1% ( 40.7%)    93.1%

 VIBRATION   44   44A       ATOM PAIR        ENERGY CONTRIBUTION    RADIAL
 FREQ.      1406.08        C  6 --  H 20          +45.6% ( 58.8%)     1.1%
 T-DIPOLE    0.0692        C  6 --  H 19          +36.2% ( 52.4%)     2.9%
 TRAVEL      0.1722        C  6 --  H 18           +9.7% ( 27.1%)    50.5%
 RED. MASS   0.4076        C  4 --  C  6           +5.3% ( 20.0%)    12.5%
 EFF. MASS   1.6182

 VIBRATION   45   45A       ATOM PAIR        ENERGY CONTRIBUTION    RADIAL
 FREQ.      1410.13        C  6 --  H 18          +49.6% ( 61.9%)     0.0%
 T-DIPOLE    0.0560        C  6 --  H 19          +21.8% ( 41.1%)     5.7%
 TRAVEL      0.1696        C  6 --  H 20          +19.1% ( 38.4%)    17.0%
 RED. MASS   0.3937        C  4 --  C  6           +6.1% ( 21.6%)    10.0%
 EFF. MASS   1.6625

 VIBRATION   46   46A       ATOM PAIR        ENERGY CONTRIBUTION    RADIAL
 FREQ.      1419.51        O  9 --  H 23          +12.2% ( 43.6%)     2.9%
 T-DIPOLE    0.3368        C  2 --  C  3          +10.9% ( 41.1%)    84.0%
 TRAVEL      0.0938        C  2 --  C  5           +8.4% ( 36.2%)    73.9%
 RED. MASS   0.4904        C  2 --  H 11           +6.9% ( 32.7%)     0.5%
 EFF. MASS   5.3994

 VIBRATION   47   47A       ATOM PAIR        ENERGY CONTRIBUTION    RADIAL
 FREQ.      1426.48        C  2 --  C  3          +10.3% ( 42.3%)    92.0%
 T-DIPOLE    0.1318        C  4 --  C  6           +8.3% ( 37.9%)    99.9%
 TRAVEL      0.0880        C  2 --  C  5           +8.2% ( 37.8%)     0.2%
 RED. MASS   0.6179        O  9 --  H 23           +7.4% ( 35.8%)     5.6%
 EFF. MASS   6.0979

 VIBRATION   48   48A       ATOM PAIR        ENERGY CONTRIBUTION    RADIAL
 FREQ.      1438.56        C  5 --  C  8          +12.6% ( 53.6%)    98.4%
 T-DIPOLE    0.3614        C  1 --  C  7          +11.1% ( 50.4%)    98.6%
 TRAVEL      0.0715        C  1 --  C  4           +7.5% ( 41.3%)    26.3%
 RED. MASS   1.1395        C  2 --  C  5           +7.1% ( 40.3%)    26.4%
 EFF. MASS   9.1807

 VIBRATION   49   49A       ATOM PAIR        ENERGY CONTRIBUTION    RADIAL
 FREQ.      1882.85        C  7 --  C  8          +44.3% ( 98.2%)   100.0%
 T-DIPOLE    0.1822        C  5 --  C  8          +14.3% ( 55.8%)    53.6%
 TRAVEL      0.0549        C  1 --  C  7          +14.1% ( 55.4%)    51.0%
 RED. MASS   5.4278        C  8 --  H 21          +13.1% ( 53.4%)     4.4%
 EFF. MASS  11.8829        C  7 --  H 22          +13.1% ( 53.3%)     4.7%

 VIBRATION   50   50A       ATOM PAIR        ENERGY CONTRIBUTION    RADIAL
 FREQ.      2831.79        C  2 --  H 11          +96.1% ( 99.7%)    99.9%
 T-DIPOLE    0.1116        C  2 --  C  5           +1.1% ( 10.6%)    10.0%
 TRAVEL      0.1280        C  2 --  C  3           +1.1% ( 10.5%)    10.6%
 RED. MASS   0.9183        C  2 --  O  9           +1.1% ( 10.5%)     9.5%
 EFF. MASS   1.4535

 VIBRATION   51   51A       ATOM PAIR        ENERGY CONTRIBUTION    RADIAL
 FREQ.      2848.12        C  1 --  H 10          +96.4% ( 99.7%)   100.0%
 T-DIPOLE    0.0575        C  1 --  C  3           +1.0% ( 10.2%)     9.0%
 TRAVEL      0.1284        C  1 --  C  4           +1.0% ( 10.1%)     8.9%
 RED. MASS   0.9190        C  1 --  C  7           +1.0% ( 10.1%)     7.1%
 EFF. MASS   1.4359

 VIBRATION   52   52A       ATOM PAIR        ENERGY CONTRIBUTION    RADIAL
 FREQ.      2946.20        C  5 --  H 17          +54.6% ( 76.6%)    97.2%
 T-DIPOLE    0.0825        C  5 --  H 16          +42.7% ( 67.8%)    95.8%
 TRAVEL      0.1221        C  5 --  C  8           +1.1% ( 10.9%)     0.0%
 RED. MASS   0.5193        C  2 --  C  5           +1.1% ( 10.9%)     0.0%
 EFF. MASS   1.5351

 VIBRATION   53   53A       ATOM PAIR        ENERGY CONTRIBUTION    RADIAL
 FREQ.      2949.46        C  4 --  H 13          +53.6% ( 76.0%)    97.0%
 T-DIPOLE    0.0185        C  4 --  H 12          +43.3% ( 68.4%)    95.9%
 TRAVEL      0.1217        C  4 --  C  6           +1.2% ( 11.3%)     0.0%
 RED. MASS   0.5157        C  1 --  C  4           +1.1% ( 11.1%)     0.1%
 EFF. MASS   1.5436

 VIBRATION   54   54A       ATOM PAIR        ENERGY CONTRIBUTION    RADIAL
 FREQ.      2958.61        C  3 --  H 15          +49.9% ( 73.3%)    96.7%
 T-DIPOLE    0.0964        C  3 --  H 14          +46.9% ( 71.1%)    96.4%
 TRAVEL      0.1216        C  2 --  C  3           +1.1% ( 11.1%)     0.0%
 RED. MASS   0.5089        C  1 --  C  3           +1.1% ( 11.1%)     0.0%
 EFF. MASS   1.5410

 VIBRATION   55   55A       ATOM PAIR        ENERGY CONTRIBUTION    RADIAL
 FREQ.      3023.04        C  5 --  H 16          +54.4% ( 72.8%)    98.3%
 T-DIPOLE    0.0880        C  5 --  H 17          +41.9% ( 63.9%)    96.8%
 TRAVEL      0.1319        C  8 --  H 21           +2.3% ( 14.9%)   100.0%
 RED. MASS   0.4698        C  5 --  C  8           +0.7% (  8.0%)    16.4%
 EFF. MASS   1.2814

 VIBRATION   56   56A       ATOM PAIR        ENERGY CONTRIBUTION    RADIAL
 FREQ.      3029.86        C  4 --  H 12          +52.8% ( 71.6%)    98.3%
 T-DIPOLE    0.0578        C  4 --  H 13          +41.4% ( 63.5%)    97.0%
 TRAVEL      0.1320        C  3 --  H 14           +1.6% ( 12.5%)    98.4%
 RED. MASS   0.4477        C  3 --  H 15           +1.2% ( 10.8%)    96.5%
 EFF. MASS   1.2769

 VIBRATION   57   57A       ATOM PAIR        ENERGY CONTRIBUTION    RADIAL
 FREQ.      3036.15        C  3 --  H 14          +46.2% ( 67.1%)    97.9%
 T-DIPOLE    0.1071        C  3 --  H 15          +43.8% ( 65.3%)    97.5%
 TRAVEL      0.1316        C  7 --  H 22           +4.8% ( 21.5%)   100.0%
 RED. MASS   0.4072        C  8 --  H 21           +1.7% ( 12.8%)    99.9%
 EFF. MASS   1.2818

 VIBRATION   58   58A       ATOM PAIR        ENERGY CONTRIBUTION    RADIAL
 FREQ.      3037.80        C  7 --  H 22          +61.5% ( 79.4%)   100.0%
 T-DIPOLE    0.2924        C  8 --  H 21          +28.6% ( 54.2%)   100.0%
 TRAVEL      0.1239        C  3 --  H 14           +2.6% ( 16.4%)    97.9%
 RED. MASS   0.4467        C  3 --  H 15           +2.4% ( 15.6%)    97.1%
 EFF. MASS   1.4471

 VIBRATION   59   59A       ATOM PAIR        ENERGY CONTRIBUTION    RADIAL
 FREQ.      3059.23        C  8 --  H 21          +64.7% ( 81.6%)    99.9%
 T-DIPOLE    0.2797        C  7 --  H 22          +30.6% ( 56.1%)    99.8%
 TRAVEL      0.1182        C  7 --  C  8           +2.0% ( 14.2%)    94.7%
 RED. MASS   0.5114        C  5 --  C  8           +1.0% ( 10.3%)    17.4%
 EFF. MASS   1.5788

 VIBRATION   60   60A       ATOM PAIR        ENERGY CONTRIBUTION    RADIAL
 FREQ.      3073.90        C  6 --  H 19          +62.1% ( 81.2%)    98.5%
 T-DIPOLE    0.0178        C  6 --  H 18          +32.3% ( 58.7%)    93.6%
 TRAVEL      0.1209        C  6 --  H 20           +4.0% ( 20.6%)    47.5%
 RED. MASS   0.5182        C  4 --  C  6           +1.0% ( 10.2%)     0.0%
 EFF. MASS   1.5004

 VIBRATION   61   61A       ATOM PAIR        ENERGY CONTRIBUTION    RADIAL
 FREQ.      3082.43        C  6 --  H 20          +57.3% ( 78.1%)    98.4%
 T-DIPOLE    0.0072        C  6 --  H 18          +34.2% ( 60.3%)    93.8%
 TRAVEL      0.1207        C  6 --  H 19           +6.9% ( 27.1%)    63.4%
 RED. MASS   0.4787        C  4 --  C  6           +1.0% ( 10.3%)     0.0%
 EFF. MASS   1.5022

 VIBRATION   62   62A       ATOM PAIR        ENERGY CONTRIBUTION    RADIAL
 FREQ.      3178.58        C  6 --  H 20          +38.1% ( 59.4%)    97.8%
 T-DIPOLE    0.0224        C  6 --  H 18          +32.3% ( 54.7%)    96.9%
 TRAVEL      0.1366        C  6 --  H 19          +29.3% ( 52.0%)    96.3%
 RED. MASS   0.3301        C  4 --  C  6           +0.3% (  5.1%)    98.9%
 EFF. MASS   1.1377

 VIBRATION   63   63A       ATOM PAIR        ENERGY CONTRIBUTION    RADIAL
 FREQ.      3902.29        O  9 --  H 23          +99.6% (100.0%)    99.9%
 T-DIPOLE    0.1883        C  2 --  O  9           +0.4% (  6.3%)     7.1%
 TRAVEL      0.1116
 RED. MASS   0.9481
 EFF. MASS   1.3882

 SYMMETRY NUMBER FOR POINT-GROUP C1  =  1


          SYSTEM IS A GROUND STATE


    NULL



          MOLECULE IS NOT LINEAR

          THERE ARE 63 GENUINE VIBRATIONS IN THIS SYSTEM
          THIS THERMODYNAMICS CALCULATION IS LIMITED TO
          MOLECULES WHICH HAVE NO INTERNAL ROTATIONS




                    CALCULATED THERMODYNAMIC PROPERTIES
                                          *
   TEMP. (K)   PARTITION FUNCTION   H.O.F.    ENTHALPY  HEAT CAPACITY ENTROPY
                                   KCAL/MOL   CAL/MOLE    CAL/K/MOL  CAL/K/MOL


 298.00  VIB.     0.3286D+03                  4269.7647    30.7027    25.8439
         ROT.     0.5583D+06                   888.2813     2.9808    29.2767
         INT.     0.1835D+09                  5158.0460    33.6835    55.1206
         TRA.     0.1371D+28                  1480.4688     4.9680    40.4094
         TOT.                      -55.142    6638.5148    38.6515    95.5300

 200.00  VIB.     0.3234D+02                  1840.2288    19.2476    16.1092
         ROT.     0.3070D+06                   596.1620     2.9808    28.0881
         INT.     0.9926D+07                  2436.3908    22.2284    44.1972
         TRA.     0.7536D+27                   993.6033     4.9680    38.4282
         TOT.                      -58.351    3429.9940    27.1964    82.6255

 210.00  VIB.     0.4078D+02                  2037.9729    20.3057    17.0738
         ROT.     0.3303D+06                   625.9700     2.9808    28.2335
         INT.     0.1347D+08                  2663.9429    23.2866    45.3073
         TRA.     0.8108D+27                  1043.2834     4.9680    38.6706
         TOT.                      -58.074    3707.2264    28.2546    83.9779

 220.00  VIB.     0.5149D+02                  2246.4360    21.3915    18.0433
         ROT.     0.3541D+06                   655.7781     2.9808    28.3722
         INT.     0.1823D+08                  2902.2141    24.3724    46.4155
         TRA.     0.8694D+27                  1092.9636     4.9680    38.9017
         TOT.                      -57.786    3995.1777    29.3404    85.3172

 230.00  VIB.     0.6507D+02                  2465.8976    22.5054    19.0187
         ROT.     0.3785D+06                   685.5862     2.9808    28.5047
         INT.     0.2463D+08                  3151.4839    25.4863    47.5234
         TRA.     0.9293D+27                  1142.6437     4.9680    39.1226
         TOT.                      -57.487    4294.1276    30.4543    86.6459

 240.00  VIB.     0.8231D+02                  2696.6367    23.6469    20.0005
         ROT.     0.4035D+06                   715.3943     2.9808    28.6315
         INT.     0.3321D+08                  3412.0311    26.6277    48.6321
         TRA.     0.9906D+27                  1192.3239     4.9680    39.3340
         TOT.                      -57.176    4604.3550    31.5957    87.9661

 250.00  VIB.     0.1042D+03                  2938.9223    24.8144    20.9894
         ROT.     0.4290D+06                   745.2024     2.9808    28.7532
         INT.     0.4471D+08                  3684.1247    27.7952    49.7427
         TRA.     0.1053D+28                  1242.0041     4.9680    39.5368
         TOT.                      -56.855    4926.1288    32.7633    89.2795

 260.00  VIB.     0.1321D+03                  3193.0056    26.0060    21.9858
         ROT.     0.4550D+06                   775.0105     2.9808    28.8701
         INT.     0.6011D+08                  3968.0161    28.9868    50.8559
         TRA.     0.1117D+28                  1291.6842     4.9680    39.7317
         TOT.                      -56.521    5259.7003    33.9548    90.5876

 270.00  VIB.     0.1677D+03                  3459.1140    27.2190    22.9900
         ROT.     0.4815D+06                   804.8186     2.9808    28.9826
         INT.     0.8073D+08                  4263.9326    30.1998    51.9726
         TRA.     0.1182D+28                  1341.3644     4.9680    39.9191
         TOT.                      -56.175    5605.2970    35.1678    91.8918

 280.00  VIB.     0.2130D+03                  3737.4466    28.4503    24.0021
         ROT.     0.5085D+06                   834.6267     2.9808    29.0910
         INT.     0.1083D+09                  4572.0734    31.4311    53.0931
         TRA.     0.1248D+28                  1391.0445     4.9680    40.0998
         TOT.                      -55.818    5963.1179    36.3992    93.1929

 290.00  VIB.     0.2709D+03                  4028.1712    29.6968    25.0221
         ROT.     0.5359D+06                   864.4348     2.9808    29.1956
         INT.     0.1452D+09                  4892.6060    32.6776    54.2178
         TRA.     0.1316D+28                  1440.7247     4.9680    40.2742
         TOT.                      -55.447    6333.3307    37.6456    94.4919

 300.00  VIB.     0.3449D+03                  4331.4224    30.9551    26.0501
         ROT.     0.5639D+06                   894.2429     2.9808    29.2967
         INT.     0.1945D+09                  5225.6653    33.9359    55.3468
         TRA.     0.1384D+28                  1490.4049     4.9680    40.4426
         TOT.                      -55.065    6716.0702    38.9039    95.7894

 310.00  VIB.     0.4397D+03                  4647.3013    32.2218    27.0857
         ROT.     0.5923D+06                   924.0510     2.9808    29.3944
         INT.     0.2605D+09                  5571.3523    35.2026    56.4802
         TRA.     0.1454D+28                  1540.0850     4.9680    40.6055
         TOT.                      -54.669    7111.4373    40.1706    97.0856

 320.00  VIB.     0.5612D+03                  4975.8757    33.4937    28.1288
         ROT.     0.6212D+06                   953.8591     2.9808    29.4891
         INT.     0.3486D+09                  5929.7348    36.4745    57.6179
         TRA.     0.1525D+28                  1589.7652     4.9680    40.7632
         TOT.                      -54.261    7519.5000    41.4425    98.3811

 330.00  VIB.     0.7171D+03                  5317.1812    34.7675    29.1790
         ROT.     0.6506D+06                   983.6672     2.9808    29.5808
         INT.     0.4665D+09                  6300.8484    37.7483    58.7597
         TRA.     0.1597D+28                  1639.4454     4.9680    40.9161
         TOT.                      -53.840    7940.2938    42.7163    99.6758

 340.00  VIB.     0.9174D+03                  5671.2229    36.0404    30.2358
         ROT.     0.6804D+06                  1013.4753     2.9808    29.6698
         INT.     0.6241D+09                  6684.6982    39.0212    59.9056
         TRA.     0.1670D+28                  1689.1255     4.9680    41.0644
         TOT.                      -53.407    8373.8237    43.9892   100.9700

 350.00  VIB.     0.1175D+04                  6037.9771    37.3096    31.2988
         ROT.     0.7106D+06                  1043.2834     2.9808    29.7562
         INT.     0.8349D+09                  7081.2605    40.2904    61.0550
         TRA.     0.1745D+28                  1738.8057     4.9680    41.2084
         TOT.                      -52.961    8820.0662    45.2584   102.2634

 360.00  VIB.     0.1507D+04                  6417.3939    38.5725    32.3676
         ROT.     0.7413D+06                  1073.0915     2.9808    29.8402
         INT.     0.1117D+10                  7490.4854    41.5534    62.2077
         TRA.     0.1820D+28                  1788.4859     4.9680    41.3484
         TOT.                      -52.502    9278.9713    46.5214   103.5561

 370.00  VIB.     0.1934D+04                  6809.3996    39.8270    33.4416
         ROT.     0.7724D+06                  1102.8996     2.9808    29.9218
         INT.     0.1494D+10                  7912.2992    42.8078    63.3634
         TRA.     0.1896D+28                  1838.1660     4.9680    41.4845
         TOT.                      -52.030    9750.4652    47.7758   104.8479

 380.00  VIB.     0.2485D+04                  7213.8989    41.0709    34.5202
         ROT.     0.8039D+06                  1132.7077     2.9808    30.0013
         INT.     0.1998D+10                  8346.6066    44.0518    64.5215
         TRA.     0.1974D+28                  1887.8462     4.9680    41.6170
         TOT.                      -51.546   10234.4528    49.0198   106.1385

 390.00  VIB.     0.3197D+04                  7630.7776    42.3026    35.6030
         ROT.     0.8358D+06                  1162.5158     2.9808    30.0787
         INT.     0.2672D+10                  8793.2934    45.2834    65.6818
         TRA.     0.2052D+28                  1937.5263     4.9680    41.7460
         TOT.                      -51.050   10730.8197    50.2514   107.4278

 400.00  VIB.     0.4118D+04                  8059.9051    43.5205    36.6894
         ROT.     0.8682D+06                  1192.3239     2.9808    30.1542
         INT.     0.3575D+10                  9252.2290    46.5013    66.8436
         TRA.     0.2131D+28                  1987.2065     4.9680    41.8718
         TOT.                      -50.541   11239.4355    51.4693   108.7154

   *: NOTE: HEATS OF FORMATION ARE RELATIVE TO THE
            ELEMENTS IN THEIR STANDARD STATE AT 298K
              (=  Standard Enthalpy of Formation).

            Hvib:  Zero-point energy is not included.
                   frequencies of less than zero cm-1 are not included.
            Hrot = (3/2)RT
            Htra = (3/2)RT + pV = (5/2)RT

            Heat capacity is Cp, not Cv

           For more information, see: HTTP://OpenMOPAC.net/Manual/thermochemistry.html


           FORCE CONSTANT IN CARTESIAN COORDINATES (Millidynes/A)

    ATOM   CHEMICAL       X               Y               Z
   NUMBER   SYMBOL  FORCE CONSTANT  FORCE CONSTANT  FORCE CONSTANT

      1       C        8.356168        8.527310        8.346867
      2       C        8.766209        8.496437        7.823543
      3       C        8.041851        8.432334        8.354944
      4       C        8.095102        8.247470        8.404136
      5       C        9.241698        8.218443        7.839216
      6       C        8.348819        8.274741        8.215867
      7       C       13.940231        6.736806        6.512185
      8       C       13.590602        6.840690        6.796034
      9       O        9.608644        6.657543        0.707758
     10       H        0.740507        1.502861        3.637428
     11       H        0.714057        1.981633        3.149233
     12       H        0.805363        2.225334        3.379948
     13       H        3.225996        2.316836        0.852302
     14       H        0.738461        2.164628        3.514618
     15       H        0.765620        2.167224        3.497843
     16       H        2.635345        2.944603        0.763017
     17       H        0.924321        2.052036        3.304340
     18       H        0.766166        2.302603        3.706042
     19       H        3.178844        2.654487        0.891974
     20       H        4.013301        1.919934        0.856971
     21       H        0.766595        2.928963        2.540600
     22       H        3.929119        1.467026        0.823427
     23       H        6.182876        3.233732        0.086463



 TOTAL CPU TIME:             2.93 SECONDS

 == MOPAC DONE ==
