 *******************************************************************************
 ** Site#: 14399           For non-commercial use only        Version 13.159M **
 *******************************************************************************
 ** Cite this work as: MOPAC2012, James J. P. Stewart, Stewart Computational  **
 ** Chemistry, Version 13.159M web: HTTP://OpenMOPAC.net  Days remaining:   6 **
 *******************************************************************************
 **                                                                           **
 **                                MOPAC2012                                  **
 **                                                                           **
 *******************************************************************************

                            PM3 CALCULATION RESULTS


 *******************************************************************************
 *  CALCULATION DONE:                                Mon Jun  2 14:11:04 2014  *
 *  PM3      - The PM3 Hamiltonian to be used
 *  PRECISE  - CRITERIA TO BE INCREASED BY 100 TIMES
 *  NOSYM    - POINT-GROUP SYMMETRY SET TO C1
 *  T=       - A TIME OF 172800.0 SECONDS REQUESTED
 *  DUMP=N   - RESTART FILE WRITTEN EVERY  7200.000 SECONDS
 *******************************************************************************
pm3  precise nosym
 InChI=1S/C8H12O/c1-2-3-4-7-5-6-8(7)9/h3-4,7H,2,5-6H2,1H3

   ATOM   CHEMICAL          X               Y               Z
  NUMBER   SYMBOL      (ANGSTROMS)     (ANGSTROMS)     (ANGSTROMS)
 
     1       C         -1.30770000  *  -0.84860000  *  -0.03480000  *
     2       C         -1.94410000  *   0.39470000  *  -0.64650000  *
     3       C         -2.93420000  *   0.44150000  *   0.45890000  *
     4       C          2.53500000  *  -0.29260000  *   0.09970000  *
     5       C          3.08330000  *   1.06180000  *  -0.33030000  *
     6       C         -2.35380000  *  -0.78740000  *   1.08330000  *
     7       C          0.09540000  *  -0.65430000  *   0.47280000  *
     8       C          1.12050000  *  -0.47730000  *  -0.37110000  *
     9       H         -1.40770000  *  -1.76120000  *  -0.66970000  *
    10       H         -2.41440000  *   0.18280000  *  -1.63540000  *
    11       H         -1.29080000  *   1.29900000  *  -0.67740000  *
    12       H          3.16070000  *  -1.10030000  *  -0.34400000  *
    13       H          2.62820000  *  -0.37900000  *   1.20770000  *
    14       H         -3.98900000  *   0.30940000  *   0.12060000  *
    15       H         -2.80770000  *   1.32350000  *   1.12860000  *
    16       H          4.13650000  *   1.16970000  *   0.01520000  *
    17       H          2.48530000  *   1.88900000  *   0.11630000  *
    18       H          3.07320000  *   1.16370000  *  -1.43980000  *
    19       O         -3.08270000  *  -1.78690000  *   1.33460000  *
    20       H          0.93680000  *  -0.46200000  *  -1.44560000  *
    21       H          0.27720000  *  -0.68570000  *   1.54730000  *
 


          CARTESIAN COORDINATES 

    NO.       ATOM         X         Y         Z

     1         C       -1.3077   -0.8486   -0.0348
     2         C       -1.9441    0.3947   -0.6465
     3         C       -2.9342    0.4415    0.4589
     4         C        2.5350   -0.2926    0.0997
     5         C        3.0833    1.0618   -0.3303
     6         C       -2.3538   -0.7874    1.0833
     7         C        0.0954   -0.6543    0.4728
     8         C        1.1205   -0.4773   -0.3711
     9         H       -1.4077   -1.7612   -0.6697
    10         H       -2.4144    0.1828   -1.6354
    11         H       -1.2908    1.2990   -0.6774
    12         H        3.1607   -1.1003   -0.3440
    13         H        2.6282   -0.3790    1.2077
    14         H       -3.9890    0.3094    0.1206
    15         H       -2.8077    1.3235    1.1286
    16         H        4.1365    1.1697    0.0152
    17         H        2.4853    1.8890    0.1163
    18         H        3.0732    1.1637   -1.4398
    19         O       -3.0827   -1.7869    1.3346
    20         H        0.9368   -0.4620   -1.4456
    21         H        0.2772   -0.6857    1.5473

  H: (PM3): J. J. P. STEWART, J. COMP. CHEM. 10, 209 (1989).
  C: (PM3): J. J. P. STEWART, J. COMP. CHEM. 10, 209 (1989).
  O: (PM3): J. J. P. STEWART, J. COMP. CHEM. 10, 209 (1989).

           Empirical Formula: C8 H12 O  =    21 atoms



      MOLECULAR POINT GROUP   :   C1  


      RHF CALCULATION, NO. OF DOUBLY OCCUPIED LEVELS =   25

      Geometry optimization using EF

          DIAGONAL MATRIX USED AS START HESSIAN

 CYCLE:     1 TIME:   0.009 TIME LEFT:  2.00D  GRAD.:   241.294 HEAT: 3.283675
 CYCLE:     2 TIME:   0.012 TIME LEFT:  2.00D  GRAD.:   168.439 HEAT:-7.267499
 CYCLE:     3 TIME:   0.007 TIME LEFT:  2.00D  GRAD.:   151.387 HEAT:-14.01923
 CYCLE:     4 TIME:   0.006 TIME LEFT:  2.00D  GRAD.:   146.477 HEAT:-15.79066
 CYCLE:     5 TIME:   0.012 TIME LEFT:  2.00D  GRAD.:   100.733 HEAT:-19.47068
 CYCLE:     6 TIME:   0.012 TIME LEFT:  2.00D  GRAD.:    56.794 HEAT:-21.14240
 CYCLE:     7 TIME:   0.006 TIME LEFT:  2.00D  GRAD.:    46.439 HEAT:-22.15832
 CYCLE:     8 TIME:   0.006 TIME LEFT:  2.00D  GRAD.:    61.591 HEAT:-23.13936
 CYCLE:     9 TIME:   0.006 TIME LEFT:  2.00D  GRAD.:    42.156 HEAT:-24.40397
 CYCLE:    10 TIME:   0.012 TIME LEFT:  2.00D  GRAD.:    44.504 HEAT:-24.88263
 CYCLE:    11 TIME:   0.006 TIME LEFT:  2.00D  GRAD.:    48.850 HEAT:-25.18419
 CYCLE:    12 TIME:   0.011 TIME LEFT:  2.00D  GRAD.:    32.329 HEAT:-25.69142
 CYCLE:    13 TIME:   0.011 TIME LEFT:  2.00D  GRAD.:    19.527 HEAT:-25.92154
 CYCLE:    14 TIME:   0.006 TIME LEFT:  2.00D  GRAD.:    16.114 HEAT:-26.07121
 CYCLE:    15 TIME:   0.006 TIME LEFT:  2.00D  GRAD.:    24.613 HEAT:-26.17658
 CYCLE:    16 TIME:   0.006 TIME LEFT:  2.00D  GRAD.:    25.435 HEAT:-26.29501
 CYCLE:    17 TIME:   0.006 TIME LEFT:  2.00D  GRAD.:    17.669 HEAT:-26.49257
 CYCLE:    18 TIME:   0.006 TIME LEFT:  2.00D  GRAD.:    16.546 HEAT:-26.67165
 CYCLE:    19 TIME:   0.006 TIME LEFT:  2.00D  GRAD.:    31.686 HEAT:-26.68559
 CYCLE:    20 TIME:   0.006 TIME LEFT:  2.00D  GRAD.:    22.747 HEAT:-26.93603
 CYCLE:    21 TIME:   0.011 TIME LEFT:  2.00D  GRAD.:    24.391 HEAT:-27.02464
 CYCLE:    22 TIME:   0.006 TIME LEFT:  2.00D  GRAD.:    13.592 HEAT:-27.09618
 CYCLE:    23 TIME:   0.006 TIME LEFT:  2.00D  GRAD.:     8.461 HEAT:-27.19645
 CYCLE:    24 TIME:   0.006 TIME LEFT:  2.00D  GRAD.:     8.753 HEAT:-27.27946
 CYCLE:    25 TIME:   0.006 TIME LEFT:  2.00D  GRAD.:    10.901 HEAT:-27.36328
 CYCLE:    26 TIME:   0.006 TIME LEFT:  2.00D  GRAD.:     7.705 HEAT:-27.41511
 CYCLE:    27 TIME:   0.006 TIME LEFT:  2.00D  GRAD.:     8.585 HEAT:-27.44450
 CYCLE:    28 TIME:   0.006 TIME LEFT:  2.00D  GRAD.:     5.997 HEAT:-27.49501
 CYCLE:    29 TIME:   0.006 TIME LEFT:  2.00D  GRAD.:     5.773 HEAT:-27.55012
 CYCLE:    30 TIME:   0.006 TIME LEFT:  2.00D  GRAD.:     4.204 HEAT:-27.58248
 CYCLE:    31 TIME:   0.006 TIME LEFT:  2.00D  GRAD.:     4.353 HEAT:-27.61758
 CYCLE:    32 TIME:   0.006 TIME LEFT:  2.00D  GRAD.:     4.933 HEAT:-27.64378
 CYCLE:    33 TIME:   0.006 TIME LEFT:  2.00D  GRAD.:     3.647 HEAT:-27.66231
 CYCLE:    34 TIME:   0.006 TIME LEFT:  2.00D  GRAD.:     2.830 HEAT:-27.67721
 CYCLE:    35 TIME:   0.006 TIME LEFT:  2.00D  GRAD.:     2.898 HEAT:-27.69171
 CYCLE:    36 TIME:   0.006 TIME LEFT:  2.00D  GRAD.:     2.408 HEAT:-27.69907
 CYCLE:    37 TIME:   0.006 TIME LEFT:  2.00D  GRAD.:     2.459 HEAT:-27.70684
 CYCLE:    38 TIME:   0.006 TIME LEFT:  2.00D  GRAD.:     2.664 HEAT:-27.71596
 CYCLE:    39 TIME:   0.006 TIME LEFT:  2.00D  GRAD.:     2.489 HEAT:-27.72446
 CYCLE:    40 TIME:   0.006 TIME LEFT:  2.00D  GRAD.:     2.702 HEAT:-27.73647
 CYCLE:    41 TIME:   0.006 TIME LEFT:  2.00D  GRAD.:     3.339 HEAT:-27.75419
 CYCLE:    42 TIME:   0.006 TIME LEFT:  2.00D  GRAD.:     4.183 HEAT:-27.77018
 CYCLE:    43 TIME:   0.006 TIME LEFT:  2.00D  GRAD.:     2.991 HEAT:-27.78787
 CYCLE:    44 TIME:   0.006 TIME LEFT:  2.00D  GRAD.:     2.762 HEAT:-27.80636
 CYCLE:    45 TIME:   0.006 TIME LEFT:  2.00D  GRAD.:     4.218 HEAT:-27.82237
 CYCLE:    46 TIME:   0.006 TIME LEFT:  2.00D  GRAD.:     4.240 HEAT:-27.83985
 CYCLE:    47 TIME:   0.006 TIME LEFT:  2.00D  GRAD.:     2.718 HEAT:-27.85628
 CYCLE:    48 TIME:   0.006 TIME LEFT:  2.00D  GRAD.:     1.864 HEAT:-27.86560
 CYCLE:    49 TIME:   0.006 TIME LEFT:  2.00D  GRAD.:     2.126 HEAT:-27.87063
 CYCLE:    50 TIME:   0.006 TIME LEFT:  2.00D  GRAD.:     2.081 HEAT:-27.87535
 CYCLE:    51 TIME:   0.006 TIME LEFT:  2.00D  GRAD.:     1.357 HEAT:-27.87948
 CYCLE:    52 TIME:   0.006 TIME LEFT:  2.00D  GRAD.:     1.279 HEAT:-27.88205
 CYCLE:    53 TIME:   0.006 TIME LEFT:  2.00D  GRAD.:     1.229 HEAT:-27.88462
 CYCLE:    54 TIME:   0.006 TIME LEFT:  2.00D  GRAD.:     1.536 HEAT:-27.88725
 CYCLE:    55 TIME:   0.006 TIME LEFT:  2.00D  GRAD.:     1.452 HEAT:-27.89005
 CYCLE:    56 TIME:   0.010 TIME LEFT:  2.00D  GRAD.:     1.519 HEAT:-27.89318
 CYCLE:    57 TIME:   0.007 TIME LEFT:  2.00D  GRAD.:     1.364 HEAT:-27.89649
 CYCLE:    58 TIME:   0.006 TIME LEFT:  2.00D  GRAD.:     1.466 HEAT:-27.90152
 CYCLE:    59 TIME:   0.006 TIME LEFT:  2.00D  GRAD.:     1.761 HEAT:-27.90846
 CYCLE:    60 TIME:   0.006 TIME LEFT:  2.00D  GRAD.:     2.172 HEAT:-27.91807
 CYCLE:    61 TIME:   0.006 TIME LEFT:  2.00D  GRAD.:     2.757 HEAT:-27.93103
 CYCLE:    62 TIME:   0.006 TIME LEFT:  2.00D  GRAD.:     3.410 HEAT:-27.95005
 CYCLE:    63 TIME:   0.006 TIME LEFT:  2.00D  GRAD.:     3.156 HEAT:-27.96424
 CYCLE:    64 TIME:   0.006 TIME LEFT:  2.00D  GRAD.:     4.910 HEAT:-27.98545
 CYCLE:    65 TIME:   0.011 TIME LEFT:  2.00D  GRAD.:     6.600 HEAT:-27.98726
 CYCLE:    66 TIME:   0.006 TIME LEFT:  2.00D  GRAD.:     2.493 HEAT:-28.01551
 CYCLE:    67 TIME:   0.006 TIME LEFT:  2.00D  GRAD.:     1.620 HEAT:-28.02543
 CYCLE:    68 TIME:   0.006 TIME LEFT:  2.00D  GRAD.:     2.052 HEAT:-28.03624
 CYCLE:    69 TIME:   0.006 TIME LEFT:  2.00D  GRAD.:     1.587 HEAT:-28.04098
 CYCLE:    70 TIME:   0.006 TIME LEFT:  2.00D  GRAD.:     1.222 HEAT:-28.04441
 CYCLE:    71 TIME:   0.006 TIME LEFT:  2.00D  GRAD.:     1.319 HEAT:-28.04859
 CYCLE:    72 TIME:   0.006 TIME LEFT:  2.00D  GRAD.:     1.455 HEAT:-28.05330
 CYCLE:    73 TIME:   0.006 TIME LEFT:  2.00D  GRAD.:     1.498 HEAT:-28.05838
 CYCLE:    74 TIME:   0.006 TIME LEFT:  2.00D  GRAD.:     1.435 HEAT:-28.06270
 CYCLE:    75 TIME:   0.006 TIME LEFT:  2.00D  GRAD.:     1.023 HEAT:-28.06611
 CYCLE:    76 TIME:   0.006 TIME LEFT:  2.00D  GRAD.:     1.401 HEAT:-28.06842
 CYCLE:    77 TIME:   0.007 TIME LEFT:  2.00D  GRAD.:     0.979 HEAT:-28.07021
 CYCLE:    78 TIME:   0.009 TIME LEFT:  2.00D  GRAD.:     0.845 HEAT:-28.07184
 CYCLE:    79 TIME:   0.006 TIME LEFT:  2.00D  GRAD.:     0.812 HEAT:-28.07364
 CYCLE:    80 TIME:   0.006 TIME LEFT:  2.00D  GRAD.:     0.882 HEAT:-28.07498
 CYCLE:    81 TIME:   0.006 TIME LEFT:  2.00D  GRAD.:     1.093 HEAT:-28.07789
 CYCLE:    82 TIME:   0.006 TIME LEFT:  2.00D  GRAD.:     1.878 HEAT:-28.08129
 CYCLE:    83 TIME:   0.006 TIME LEFT:  2.00D  GRAD.:     1.611 HEAT:-28.08528
 CYCLE:    84 TIME:   0.006 TIME LEFT:  2.00D  GRAD.:     1.346 HEAT:-28.08888
 CYCLE:    85 TIME:   0.006 TIME LEFT:  2.00D  GRAD.:     1.364 HEAT:-28.09227
 CYCLE:    86 TIME:   0.006 TIME LEFT:  2.00D  GRAD.:     1.252 HEAT:-28.09515
 CYCLE:    87 TIME:   0.006 TIME LEFT:  2.00D  GRAD.:     1.027 HEAT:-28.09738
 CYCLE:    88 TIME:   0.006 TIME LEFT:  2.00D  GRAD.:     0.697 HEAT:-28.09864
 CYCLE:    89 TIME:   0.006 TIME LEFT:  2.00D  GRAD.:     0.501 HEAT:-28.09926
 CYCLE:    90 TIME:   0.006 TIME LEFT:  2.00D  GRAD.:     0.520 HEAT:-28.09975
 CYCLE:    91 TIME:   0.006 TIME LEFT:  2.00D  GRAD.:     0.601 HEAT:-28.10012
 CYCLE:    92 TIME:   0.006 TIME LEFT:  2.00D  GRAD.:     0.435 HEAT:-28.10051
 CYCLE:    93 TIME:   0.006 TIME LEFT:  2.00D  GRAD.:     0.359 HEAT:-28.10074
 CYCLE:    94 TIME:   0.006 TIME LEFT:  2.00D  GRAD.:     0.519 HEAT:-28.10123
 CYCLE:    95 TIME:   0.006 TIME LEFT:  2.00D  GRAD.:     0.761 HEAT:-28.10181
 CYCLE:    96 TIME:   0.006 TIME LEFT:  2.00D  GRAD.:     1.092 HEAT:-28.10306
 CYCLE:    97 TIME:   0.006 TIME LEFT:  2.00D  GRAD.:     1.031 HEAT:-28.10509
 CYCLE:    98 TIME:   0.006 TIME LEFT:  2.00D  GRAD.:     0.945 HEAT:-28.10695
 CYCLE:    99 TIME:   0.006 TIME LEFT:  2.00D  GRAD.:     1.069 HEAT:-28.10900
 CYCLE:   100 TIME:   0.006 TIME LEFT:  2.00D  GRAD.:     1.071 HEAT:-28.11088
 CYCLE:   101 TIME:   0.006 TIME LEFT:  2.00D  GRAD.:     0.883 HEAT:-28.11366
 CYCLE:   102 TIME:   0.006 TIME LEFT:  2.00D  GRAD.:     0.687 HEAT:-28.11482
 CYCLE:   103 TIME:   0.006 TIME LEFT:  2.00D  GRAD.:     0.633 HEAT:-28.11601
 CYCLE:   104 TIME:   0.006 TIME LEFT:  2.00D  GRAD.:     0.518 HEAT:-28.11639
 CYCLE:   105 TIME:   0.006 TIME LEFT:  2.00D  GRAD.:     0.388 HEAT:-28.11696
 CYCLE:   106 TIME:   0.006 TIME LEFT:  2.00D  GRAD.:     0.329 HEAT:-28.11719
 CYCLE:   107 TIME:   0.006 TIME LEFT:  2.00D  GRAD.:     0.363 HEAT:-28.11748
 CYCLE:   108 TIME:   0.006 TIME LEFT:  2.00D  GRAD.:     0.388 HEAT:-28.11765
 CYCLE:   109 TIME:   0.006 TIME LEFT:  2.00D  GRAD.:     0.695 HEAT:-28.11807
 CYCLE:   110 TIME:   0.006 TIME LEFT:  2.00D  GRAD.:     0.483 HEAT:-28.11843
 CYCLE:   111 TIME:   0.006 TIME LEFT:  2.00D  GRAD.:     0.533 HEAT:-28.11922
 CYCLE:   112 TIME:   0.006 TIME LEFT:  2.00D  GRAD.:     0.816 HEAT:-28.12014
 CYCLE:   113 TIME:   0.006 TIME LEFT:  2.00D  GRAD.:     2.249 HEAT:-28.12372
 CYCLE:   114 TIME:   0.006 TIME LEFT:  2.00D  GRAD.:     1.748 HEAT:-28.12632
 CYCLE:   115 TIME:   0.006 TIME LEFT:  2.00D  GRAD.:     2.061 HEAT:-28.13307
 CYCLE:   116 TIME:   0.006 TIME LEFT:  2.00D  GRAD.:     1.386 HEAT:-28.13422
 CYCLE:   117 TIME:   0.006 TIME LEFT:  2.00D  GRAD.:     0.668 HEAT:-28.13619
 CYCLE:   118 TIME:   0.006 TIME LEFT:  2.00D  GRAD.:     0.999 HEAT:-28.13719
 CYCLE:   119 TIME:   0.006 TIME LEFT:  2.00D  GRAD.:     0.845 HEAT:-28.13809
 CYCLE:   120 TIME:   0.006 TIME LEFT:  2.00D  GRAD.:     0.472 HEAT:-28.13912
 CYCLE:   121 TIME:   0.006 TIME LEFT:  2.00D  GRAD.:     0.470 HEAT:-28.13949
 CYCLE:   122 TIME:   0.006 TIME LEFT:  2.00D  GRAD.:     0.233 HEAT:-28.13963
 CYCLE:   123 TIME:   0.006 TIME LEFT:  2.00D  GRAD.:     0.087 HEAT:-28.13971
 CYCLE:   124 TIME:   0.006 TIME LEFT:  2.00D  GRAD.:     0.099 HEAT:-28.13974
 CYCLE:   125 TIME:   0.006 TIME LEFT:  2.00D  GRAD.:     0.054 HEAT:-28.13975
 CYCLE:   126 TIME:   0.006 TIME LEFT:  2.00D  GRAD.:     0.221 HEAT:-28.13974
 CYCLE:   127 TIME:   0.006 TIME LEFT:  2.00D  GRAD.:     0.047 HEAT:-28.13976

     RMS GRADIENT =  0.04699  IS LESS THAN CUTOFF =  0.05000



 -------------------------------------------------------------------------------
pm3  precise nosym
 InChI=1S/C8H12O/c1-2-3-4-7-5-6-8(7)9/h3-4,7H,2,5-6H2,1H3



     GEOMETRY OPTIMISED USING EIGENVECTOR FOLLOWING (EF).     
     SCF FIELD WAS ACHIEVED                                   


                              PM3 CALCULATION
                                                       MOPAC2012 (Version: 13.159M)
                                                       Mon Jun  2 14:11:04 2014
                                                       No. of days left =   6




          FINAL HEAT OF FORMATION =        -28.13976 KCAL/MOL =    -117.73676 KJ/MOL


          TOTAL ENERGY            =      -1426.26066 EV
          ELECTRONIC ENERGY       =      -6853.59928 EV  POINT GROUP:     C1  
          CORE-CORE REPULSION     =       5427.33862 EV
          COSMO AREA              =        179.86 SQUARE ANGSTROMS
          COSMO VOLUME            =        173.99 CUBIC ANGSTROMS

          GRADIENT NORM           =          0.04699
          IONIZATION POTENTIAL    =          9.834315 EV
          HOMO LUMO ENERGIES (EV) =         -9.834  0.772
          NO. OF FILLED LEVELS    =         25
          MOLECULAR WEIGHT        =        124.182

          MOLECULAR DIMENSIONS (Angstroms)

            Atom       Atom       Distance
            H    16    H    14     8.20457
            H    10    O    19     4.10305
            H     9    H    15     3.73363


          SCF CALCULATIONS        =        136
          COMPUTATION TIME        =          0.841 SECONDS




   ATOM   CHEMICAL          X               Y               Z
  NUMBER   SYMBOL      (ANGSTROMS)     (ANGSTROMS)     (ANGSTROMS)
 
     1       C         -1.34884285  *  -0.94001432  *  -0.16030356  *
     2       C         -1.94544774  *   0.34453259  *  -0.80286115  *
     3       C         -3.00203473  *   0.43695815  *   0.32034300  *
     4       C          2.45825175  *  -0.32298932  *   0.02462079  *
     5       C          3.06672740  *   1.05938675  *  -0.07530514  *
     6       C         -2.39533936  *  -0.80760629  *   0.96069572  *
     7       C          0.06146416  *  -0.89369903  *   0.28845392  *
     8       C          1.03766202  *  -0.32179680  *  -0.41763748  *
     9       H         -1.49590220  *  -1.85131718  *  -0.77973541  *
    10       H         -2.35738787  *   0.19829021  *  -1.81173885  *
    11       H         -1.25116341  *   1.19754764  *  -0.84897678  *
    12       H          3.01958015  *  -1.03549559  *  -0.61313435  *
    13       H          2.55566224  *  -0.70669384  *   1.06009112  *
    14       H         -4.04692380  *   0.32605642  *  -0.00693662  *
    15       H         -2.94848099  *   1.34550276  *   0.93927194  *
    16       H          4.12237239  *   1.04991552  *   0.22452017  *
    17       H          2.54723948  *   1.77685487  *   0.57294786  *
    18       H          3.01936521  *   1.45197011  *  -1.09977534  *
    19       O         -2.63729040  *  -1.43804961  *   1.95381997  *
    20       H          0.83219700  *   0.17706699  *  -1.37373408  *
    21       H          0.26664541  *  -1.39365779  *   1.24440731  *

           Empirical Formula: C8 H12 O  =    21 atoms



      MOLECULAR POINT GROUP   :   C1  


                  EIGENVALUES  
 -40.83213 -37.03968 -35.33510 -30.34677 -25.49391 -23.62578 -22.08492 -19.67349
 -18.21054 -17.39288 -17.19709 -16.48368 -15.39071 -15.32787 -14.63516 -13.93212
 -13.74628 -13.53183 -13.19900 -12.75820 -12.27453 -12.06972 -11.99590 -10.70338
  -9.83431   0.77174   0.93948   2.27483   3.01684   3.15201   3.27659   3.57332
   3.61166   3.75108   3.82713   3.86197   3.96432   4.01579   4.08625   4.14301
   4.49095   4.62079   4.67130   4.72636   4.76437   5.49460   5.74012   7.08439


              NET ATOMIC CHARGES AND DIPOLE CONTRIBUTIONS

  ATOM NO.   TYPE          CHARGE      No. of ELECS.   s-Pop       p-Pop       
    1          C          -0.115236        4.1152     1.19260     2.92264
    2          C          -0.096047        4.0960     1.17284     2.92321
    3          C          -0.171693        4.1717     1.18528     2.98641
    4          C          -0.061628        4.0616     1.14573     2.91590
    5          C          -0.106056        4.1061     1.13764     2.96842
    6          C           0.287942        3.7121     1.22793     2.48413
    7          C          -0.139677        4.1397     1.18957     2.95010
    8          C          -0.143958        4.1440     1.19596     2.94799
    9          H           0.095933        0.9041     0.90407
   10          H           0.060098        0.9399     0.93990
   11          H           0.068362        0.9316     0.93164
   12          H           0.054606        0.9454     0.94539
   13          H           0.054083        0.9459     0.94592
   14          H           0.079648        0.9204     0.92035
   15          H           0.081687        0.9183     0.91831
   16          H           0.038521        0.9615     0.96148
   17          H           0.040124        0.9599     0.95988
   18          H           0.037474        0.9625     0.96253
   19          O          -0.280771        6.2808     1.85607     4.42470
   20          H           0.102807        0.8972     0.89719
   21          H           0.113781        0.8862     0.88622
 DIPOLE           X         Y         Z       TOTAL
 POINT-CHG.     0.639     1.120    -1.710     2.142
 HYBRID        -0.001     0.196    -0.347     0.398
 SUM            0.638     1.316    -2.057     2.523


          ATOMIC ORBITAL ELECTRON POPULATIONS

    Atom      s        px        py        pz   
    1  C   1.19260   0.95171   0.98955   0.98138
    2  C   1.17284   0.97791   0.97411   0.97119
    3  C   1.18528   0.99994   1.00082   0.98564
    4  C   1.14573   0.93738   0.96967   1.00886
    5  C   1.13764   0.99741   0.96142   1.00958
    6  C   1.22793   0.82624   0.82927   0.82861
    7  C   1.18957   0.93401   1.01419   1.00189
    8  C   1.19596   0.95448   1.00003   0.99348
    9  H   0.90407
   10  H   0.93990
   11  H   0.93164
   12  H   0.94539
   13  H   0.94592
   14  H   0.92035
   15  H   0.91831
   16  H   0.96148
   17  H   0.95988
   18  H   0.96253
   19  O   1.85607   1.63514   1.51281   1.27675
   20  H   0.89719
   21  H   0.88622
 *******************************************************************************
 ** Site#: 14399           For non-commercial use only        Version 13.159M **
 *******************************************************************************
 ** Cite this work as: MOPAC2012, James J. P. Stewart, Stewart Computational  **
 ** Chemistry, Version 13.159M web: HTTP://OpenMOPAC.net  Days remaining:   6 **
 *******************************************************************************
 **                                                                           **
 **                                MOPAC2012                                  **
 **                                                                           **
 *******************************************************************************

                            PM3 CALCULATION RESULTS


 *******************************************************************************
 *  CALCULATION DONE:                                Mon Jun  2 14:11:04 2014  *
 *  PM3      - The PM3 Hamiltonian to be used
 *  OLDGEO   - PREVIOUS GEOMETRY TO BE USED
 *  PRECISE  - CRITERIA TO BE INCREASED BY 100 TIMES
 *  NOSYM    - POINT-GROUP SYMMETRY SET TO C1
 *  T=       - A TIME OF 172800.0 SECONDS REQUESTED
 *  DUMP=N   - RESTART FILE WRITTEN EVERY  7200.000 SECONDS
 *  THERMO   - THERMODYNAMIC QUANTITIES TO BE CALCULATED
 *******************************************************************************
oldgeo thermo nosym precise  pm3

   ATOM   CHEMICAL          X               Y               Z
  NUMBER   SYMBOL      (ANGSTROMS)     (ANGSTROMS)     (ANGSTROMS)
 
     1       C         -1.34884285  *  -0.94001432  *  -0.16030356  *
     2       C         -1.94544774  *   0.34453259  *  -0.80286115  *
     3       C         -3.00203473  *   0.43695815  *   0.32034300  *
     4       C          2.45825175  *  -0.32298932  *   0.02462079  *
     5       C          3.06672740  *   1.05938675  *  -0.07530514  *
     6       C         -2.39533936  *  -0.80760629  *   0.96069572  *
     7       C          0.06146416  *  -0.89369903  *   0.28845392  *
     8       C          1.03766202  *  -0.32179680  *  -0.41763748  *
     9       H         -1.49590220  *  -1.85131718  *  -0.77973541  *
    10       H         -2.35738787  *   0.19829021  *  -1.81173885  *
    11       H         -1.25116341  *   1.19754764  *  -0.84897678  *
    12       H          3.01958015  *  -1.03549559  *  -0.61313435  *
    13       H          2.55566224  *  -0.70669384  *   1.06009112  *
    14       H         -4.04692380  *   0.32605642  *  -0.00693662  *
    15       H         -2.94848099  *   1.34550276  *   0.93927194  *
    16       H          4.12237239  *   1.04991552  *   0.22452017  *
    17       H          2.54723948  *   1.77685487  *   0.57294786  *
    18       H          3.01936521  *   1.45197011  *  -1.09977534  *
    19       O         -2.63729040  *  -1.43804961  *   1.95381997  *
    20       H          0.83219700  *   0.17706699  *  -1.37373408  *
    21       H          0.26664541  *  -1.39365779  *   1.24440731  *
 


          CARTESIAN COORDINATES 

    NO.       ATOM         X         Y         Z

     1         C       -1.3488   -0.9400   -0.1603
     2         C       -1.9454    0.3445   -0.8029
     3         C       -3.0020    0.4370    0.3203
     4         C        2.4583   -0.3230    0.0246
     5         C        3.0667    1.0594   -0.0753
     6         C       -2.3953   -0.8076    0.9607
     7         C        0.0615   -0.8937    0.2885
     8         C        1.0377   -0.3218   -0.4176
     9         H       -1.4959   -1.8513   -0.7797
    10         H       -2.3574    0.1983   -1.8117
    11         H       -1.2512    1.1975   -0.8490
    12         H        3.0196   -1.0355   -0.6131
    13         H        2.5557   -0.7067    1.0601
    14         H       -4.0469    0.3261   -0.0069
    15         H       -2.9485    1.3455    0.9393
    16         H        4.1224    1.0499    0.2245
    17         H        2.5472    1.7769    0.5729
    18         H        3.0194    1.4520   -1.0998
    19         O       -2.6373   -1.4380    1.9538
    20         H        0.8322    0.1771   -1.3737
    21         H        0.2666   -1.3937    1.2444

  H: (PM3): J. J. P. STEWART, J. COMP. CHEM. 10, 209 (1989).
  C: (PM3): J. J. P. STEWART, J. COMP. CHEM. 10, 209 (1989).
  O: (PM3): J. J. P. STEWART, J. COMP. CHEM. 10, 209 (1989).

           Empirical Formula: C8 H12 O  =    21 atoms



      MOLECULAR POINT GROUP   :   C1  


      RHF CALCULATION, NO. OF DOUBLY OCCUPIED LEVELS =   25



          HEAT OF FORMATION =     -28.139761 KCALS/MOLE


          INTERNAL COORDINATE DERIVATIVES

   NUMBER  ATOM       BOND         ANGLE      DIHEDRAL

     1       C      0.001672    -0.005712     0.002727
     2       C     -0.000771     0.002504     0.003993
     3       C     -0.002907     0.000762     0.001684
     4       C     -0.002810     0.006417    -0.004124
     5       C      0.005135    -0.011959    -0.002831
     6       C     -0.006114     0.009913    -0.006933
     7       C     -0.006059     0.000983    -0.000411
     8       C     -0.006737    -0.007300     0.000476
     9       H     -0.004381    -0.008195     0.012620
    10       H      0.000941     0.006877    -0.003710
    11       H      0.004332    -0.000819     0.001873
    12       H     -0.004537    -0.003793     0.006273
    13       H      0.003096     0.002043    -0.002382
    14       H      0.004018     0.002760    -0.006557
    15       H      0.001915     0.000985     0.003332
    16       H     -0.001916    -0.002919    -0.000686
    17       H      0.004411    -0.002053     0.001674
    18       H     -0.001828     0.009357     0.011688
    19       O      0.013167    -0.013187     0.004298
    20       H      0.002065     0.010229    -0.015132
    21       H     -0.002692     0.003109    -0.007874


          GRADIENT NORM =   0.04688


          TIME FOR SCF CALCULATION =    0.00

          TIME FOR DERIVATIVES     =    0.00

          MOLECULAR WEIGHT =  124.18



          ROTATIONAL CONSTANTS IN CM(-1)

          A =    0.11602958   B =    0.02493514   C =    0.02269045



           PRINCIPAL MOMENTS OF INERTIA IN UNITS OF 10**(-40)*GRAM-CM**2

          A =      241.2555   B =     1122.6233   C =     1233.6810


          ORIENTATION OF MOLECULE IN FORCE CALCULATION

    NO.       ATOM         X         Y         Z

     1          C      -0.0339    0.2448   -1.1040
     2          C       1.5214    0.2448   -1.1040
     3          C       1.5390    1.7896   -1.1040
     4          C      -1.0611   -2.1761    1.7232
     5          C      -0.1115   -2.5931    2.8257
     6          C       0.0138    1.7831   -1.0764
     7          C      -0.7220   -0.3829    0.0471
     8          C      -0.3324   -1.5342    0.5959
     9          H      -0.4742   -0.1545   -2.0434
    10          H       1.9754   -0.2209   -1.9905
    11          H       1.9786   -0.2177   -0.2159
    12          H      -1.6014   -3.0602    1.3284
    13          H      -1.8432   -1.5039    2.1298
    14          H       1.9834    2.2546   -1.9970
    15          H       2.0131    2.2519   -0.2249
    16          H      -0.6481   -3.0916    3.6429
    17          H       0.4126   -1.7294    3.2551
    18          H       0.6542   -3.2908    2.4613
    19          O      -0.8244    2.6426   -1.0434
    20          H       0.5534   -2.0691    0.2294
    21          H      -1.6086    0.1520    0.4127


    FIRST DERIVATIVES WILL BE USED IN THE CALCULATION OF SECOND DERIVATIVES

          ESTIMATED TIME TO COMPLETE CALCULATION =        2.18 SECONDS

    FOR POINT-GROUP C1   THERE ARE   1 UNIQUE SYMMETRY FUNCTIONS.

 STEP:   1 TIME =     0.03 SECS, INTEGRAL =      0.03 TIME LEFT: 172799.96
 STEP:   2 TIME =     0.03 SECS, INTEGRAL =      0.06 TIME LEFT: 172799.93
 STEP:   3 TIME =     0.03 SECS, INTEGRAL =      0.08 TIME LEFT: 172799.91
 STEP:   4 TIME =     0.03 SECS, INTEGRAL =      0.11 TIME LEFT: 172799.88
 STEP:   5 TIME =     0.03 SECS, INTEGRAL =      0.14 TIME LEFT: 172799.85
 STEP:   6 TIME =     0.03 SECS, INTEGRAL =      0.17 TIME LEFT: 172799.83
 STEP:   7 TIME =     0.03 SECS, INTEGRAL =      0.19 TIME LEFT: 172799.80
 STEP:   8 TIME =     0.03 SECS, INTEGRAL =      0.22 TIME LEFT: 172799.77
 STEP:   9 TIME =     0.03 SECS, INTEGRAL =      0.25 TIME LEFT: 172799.74
 STEP:  10 TIME =     0.03 SECS, INTEGRAL =      0.27 TIME LEFT: 172799.72
 STEP:  11 TIME =     0.03 SECS, INTEGRAL =      0.30 TIME LEFT: 172799.69
 STEP:  12 TIME =     0.03 SECS, INTEGRAL =      0.33 TIME LEFT: 172799.66
 STEP:  13 TIME =     0.03 SECS, INTEGRAL =      0.36 TIME LEFT: 172799.63
 STEP:  14 TIME =     0.03 SECS, INTEGRAL =      0.38 TIME LEFT: 172799.61
 STEP:  15 TIME =     0.03 SECS, INTEGRAL =      0.41 TIME LEFT: 172799.58
 STEP:  16 TIME =     0.03 SECS, INTEGRAL =      0.44 TIME LEFT: 172799.55
 STEP:  17 TIME =     0.03 SECS, INTEGRAL =      0.47 TIME LEFT: 172799.53
 STEP:  18 TIME =     0.03 SECS, INTEGRAL =      0.49 TIME LEFT: 172799.50
 STEP:  19 TIME =     0.03 SECS, INTEGRAL =      0.52 TIME LEFT: 172799.47
 STEP:  20 TIME =     0.03 SECS, INTEGRAL =      0.55 TIME LEFT: 172799.44
 STEP:  21 TIME =     0.03 SECS, INTEGRAL =      0.58 TIME LEFT: 172799.42
 STEP:  22 TIME =     0.03 SECS, INTEGRAL =      0.60 TIME LEFT: 172799.39
 STEP:  23 TIME =     0.03 SECS, INTEGRAL =      0.63 TIME LEFT: 172799.36
 STEP:  24 TIME =     0.03 SECS, INTEGRAL =      0.66 TIME LEFT: 172799.33
 STEP:  25 TIME =     0.03 SECS, INTEGRAL =      0.68 TIME LEFT: 172799.31
 STEP:  26 TIME =     0.03 SECS, INTEGRAL =      0.71 TIME LEFT: 172799.28
 STEP:  27 TIME =     0.03 SECS, INTEGRAL =      0.74 TIME LEFT: 172799.25
 STEP:  28 TIME =     0.03 SECS, INTEGRAL =      0.77 TIME LEFT: 172799.22
 STEP:  29 TIME =     0.03 SECS, INTEGRAL =      0.79 TIME LEFT: 172799.20
 STEP:  30 TIME =     0.03 SECS, INTEGRAL =      0.82 TIME LEFT: 172799.17
 STEP:  31 TIME =     0.03 SECS, INTEGRAL =      0.85 TIME LEFT: 172799.14
 STEP:  32 TIME =     0.03 SECS, INTEGRAL =      0.87 TIME LEFT: 172799.12
 STEP:  33 TIME =     0.03 SECS, INTEGRAL =      0.90 TIME LEFT: 172799.09
 STEP:  34 TIME =     0.03 SECS, INTEGRAL =      0.93 TIME LEFT: 172799.06
 STEP:  35 TIME =     0.03 SECS, INTEGRAL =      0.95 TIME LEFT: 172799.04
 STEP:  36 TIME =     0.03 SECS, INTEGRAL =      0.98 TIME LEFT: 172799.01
 STEP:  37 TIME =     0.03 SECS, INTEGRAL =      1.01 TIME LEFT: 172798.98
 STEP:  38 TIME =     0.03 SECS, INTEGRAL =      1.04 TIME LEFT: 172798.95
 STEP:  39 TIME =     0.03 SECS, INTEGRAL =      1.07 TIME LEFT: 172798.92
 STEP:  40 TIME =     0.03 SECS, INTEGRAL =      1.10 TIME LEFT: 172798.89
 STEP:  41 TIME =     0.03 SECS, INTEGRAL =      1.12 TIME LEFT: 172798.87
 STEP:  42 TIME =     0.03 SECS, INTEGRAL =      1.15 TIME LEFT: 172798.84
 STEP:  43 TIME =     0.03 SECS, INTEGRAL =      1.18 TIME LEFT: 172798.81
 STEP:  44 TIME =     0.03 SECS, INTEGRAL =      1.21 TIME LEFT: 172798.79
 STEP:  45 TIME =     0.03 SECS, INTEGRAL =      1.23 TIME LEFT: 172798.76
 STEP:  46 TIME =     0.03 SECS, INTEGRAL =      1.26 TIME LEFT: 172798.73
 STEP:  47 TIME =     0.03 SECS, INTEGRAL =      1.29 TIME LEFT: 172798.70
 STEP:  48 TIME =     0.03 SECS, INTEGRAL =      1.31 TIME LEFT: 172798.68
 STEP:  49 TIME =     0.03 SECS, INTEGRAL =      1.34 TIME LEFT: 172798.65
 STEP:  50 TIME =     0.03 SECS, INTEGRAL =      1.37 TIME LEFT: 172798.62
 STEP:  51 TIME =     0.03 SECS, INTEGRAL =      1.39 TIME LEFT: 172798.60
 STEP:  52 TIME =     0.03 SECS, INTEGRAL =      1.42 TIME LEFT: 172798.57
 STEP:  53 TIME =     0.03 SECS, INTEGRAL =      1.45 TIME LEFT: 172798.54
 STEP:  54 TIME =     0.03 SECS, INTEGRAL =      1.47 TIME LEFT: 172798.52
 STEP:  55 TIME =     0.03 SECS, INTEGRAL =      1.50 TIME LEFT: 172798.49
 STEP:  56 TIME =     0.03 SECS, INTEGRAL =      1.53 TIME LEFT: 172798.46
 STEP:  57 TIME =     0.03 SECS, INTEGRAL =      1.56 TIME LEFT: 172798.44
 STEP:  58 TIME =     0.03 SECS, INTEGRAL =      1.58 TIME LEFT: 172798.41
 STEP:  59 TIME =     0.03 SECS, INTEGRAL =      1.61 TIME LEFT: 172798.38
 STEP:  60 TIME =     0.03 SECS, INTEGRAL =      1.64 TIME LEFT: 172798.35
 STEP:  61 TIME =     0.03 SECS, INTEGRAL =      1.67 TIME LEFT: 172798.33
 STEP:  62 TIME =     0.03 SECS, INTEGRAL =      1.69 TIME LEFT: 172798.30
 STEP:  63 TIME =     0.03 SECS, INTEGRAL =      1.73 TIME LEFT: 172798.27

(To convert to Hartree/Bohr^2, multiply by (10^(-21) x N x a0^2)/(4.184 x 627.51) = 0.0642)


           FORCE MATRIX IN MILLIDYNES/ANGSTROM


                  C  1       C  2       C  3       C  4       C  5       C  6
 ------------------------------------------------------------------------------
     C    1  14.508614
     C    2   3.214975  14.285060
     C    3   1.847836   3.561794  14.172335
     C    4   0.145013   0.008089   0.004346  14.685088
     C    5   0.019321   0.001246   0.002173   4.410293  14.346660
     C    6   3.113709   2.056584   3.503090   0.016078   0.007415  21.392452
     C    7   5.125612   0.532140   0.061751   0.826423   0.040343   0.589212
     C    8   0.841414   0.051808   0.010919   4.957546   0.717646   0.063499
     H    9   4.386738   0.428989   0.051037   0.018899   0.002240   0.421388
     H   10   0.436948   4.727205   0.442503   0.000847   0.000257   0.051029
     H   11   0.449600   4.684498   0.442537   0.001749   0.000374   0.046168
     H   12   0.019709   0.001181   0.000937   4.420341   0.446011   0.004306
     H   13   0.003587   0.000344   0.000699   4.443333   0.434599   0.002119
     H   14   0.053747   0.438891   4.700778   0.000399   0.000370   0.439389
     H   15   0.054683   0.440077   4.700143   0.000587   0.000382   0.442109
     H   16   0.003537   0.000185   0.000593   0.449558   4.752269   0.002329
     H   17   0.000927   0.000165   0.000481   0.461212   4.745249   0.001437
     H   18   0.000857   0.000199   0.000472   0.464874   4.724556   0.001648
     O   19   0.867825   0.033720   0.903335   0.003851   0.004981  15.180063
     H   20   0.085139   0.019574   0.003236   0.431277   0.026487   0.009371
     H   21   0.428492   0.035729   0.003711   0.086526   0.008916   0.046808


                  C  7       C  8       H  9       H 10       H 11       H 12
 ------------------------------------------------------------------------------
     C    7  18.286559
     C    8  10.669468  18.160856
     H    9   0.395296   0.022226   4.857148
     H   10   0.033310   0.003844   0.026482   5.339534
     H   11   0.014687   0.018488   0.030946   0.545492   5.301885
     H   12   0.032712   0.407266   0.003126   0.000138   0.000272   5.017301
     H   13   0.050388   0.460448   0.000798   0.000170   0.000410   0.566139
     H   14   0.003366   0.001213   0.009150   0.022575   0.031807   0.000105
     H   15   0.009537   0.002295   0.003034   0.031850   0.023452   0.000205
     H   16   0.006795   0.052750   0.000340   0.000097   0.000168   0.028618
     H   17   0.002545   0.015780   0.000195   0.000100   0.000253   0.049235
     H   18   0.002160   0.027493   0.000132   0.000069   0.000172   0.023790
     O   19   0.061565   0.016525   0.049834   0.009599   0.008390   0.002170
     H   20   0.471462   4.756981   0.010709   0.001499   0.025397   0.017071
     H   21   4.762584   0.468892   0.014069   0.004386   0.003353   0.010339


                  H 13       H 14       H 15       H 16       H 17       H 18
 ------------------------------------------------------------------------------
     H   13   5.052653
     H   14   0.000109   5.317918
     H   15   0.000108   0.554352   5.315735
     H   16   0.030292   0.000125   0.000169   5.488856
     H   17   0.024478   0.000103   0.000096   0.574736   5.483663
     H   18   0.047832   0.000099   0.000072   0.573796   0.578569   5.469977
     O   19   0.001345   0.048183   0.048177   0.001407   0.001048   0.001148
     H   20   0.039016   0.000526   0.000751   0.002060   0.002693   0.020409
     H   21   0.030084   0.000527   0.001182   0.001715   0.000495   0.000664


                  O 19       H 20       H 21
 ------------------------------------------
     O   19  16.658477
     H   20   0.005618   5.137853
     H   21   0.018515   0.106773   5.123994


          HEAT OF FORMATION =     -28.139761 KCALS/MOLE

          ZERO POINT ENERGY     113.002 KCAL/MOL


           NORMAL COORDINATE ANALYSIS (Total motion = 1 Angstrom)


   Root No.       1         2         3         4         5         6         7         8

                 1 A       2 A       3 A       4 A       5 A       6 A       7 A       8 A   

                  27.5      76.8      95.0     129.4     157.0     180.2     293.8     330.5
  
           1   -0.0066    0.0041   -0.0117    0.0198   -0.0008   -0.0102    0.0089   -0.0207
           2   -0.0013   -0.0025   -0.0046   -0.0105   -0.0011    0.0087   -0.0075   -0.0012
           3   -0.0105   -0.0189   -0.0236   -0.0119    0.0008    0.0124    0.0026   -0.0196
           4   -0.0067    0.0035   -0.0114    0.0198    0.0002   -0.0105    0.0092   -0.0235
           5   -0.0106    0.0036   -0.0153    0.0109   -0.0053   -0.0001   -0.0170   -0.0206
           6   -0.0213   -0.0291   -0.0015   -0.0023    0.0554    0.0024   -0.0066    0.0328
           7    0.0026   -0.0024    0.0000   -0.0023    0.0037   -0.0006    0.0087   -0.0106
           8   -0.0107    0.0039   -0.0157    0.0120   -0.0059   -0.0009   -0.0145   -0.0223
           9    0.0066   -0.0156    0.0629   -0.0065   -0.0304   -0.0039    0.0081    0.0080
          10    0.0052    0.0056    0.0096   -0.0151    0.0018    0.0086   -0.0067    0.0335
          11   -0.0230    0.0208    0.0263    0.0269   -0.0007   -0.0279   -0.0097    0.0256
          12   -0.0234    0.0047    0.0125    0.0072   -0.0010   -0.0130   -0.0268   -0.0222
          13   -0.0054   -0.0337    0.0304   -0.0034    0.0236   -0.0061    0.0053   -0.0168
          14    0.0658   -0.0289    0.0076    0.0177    0.0056   -0.0022    0.0093   -0.0004
          15    0.0195    0.0191   -0.0119   -0.0066   -0.0164    0.0092   -0.0316    0.0070
          16    0.0028   -0.0019   -0.0008   -0.0019    0.0037   -0.0008    0.0075   -0.0122
          17   -0.0019   -0.0023   -0.0050   -0.0105   -0.0015    0.0096   -0.0184   -0.0034
          18    0.0178    0.0030    0.0072    0.0035   -0.0074    0.0021   -0.0081   -0.0166
          19   -0.0064   -0.0027   -0.0244    0.0176   -0.0403   -0.0052   -0.0057    0.0219
          20   -0.0169   -0.0149   -0.0089   -0.0061   -0.0086   -0.0063    0.0606    0.0169
          21   -0.0190   -0.0304   -0.0330   -0.0118   -0.0275    0.0072    0.0301    0.0097
          22    0.0055    0.0411   -0.0029   -0.0140   -0.0115    0.0156   -0.0031    0.0388
          23   -0.0116    0.0300    0.0129   -0.0199    0.0147   -0.0002    0.0620    0.0045
          24   -0.0168    0.0324   -0.0029   -0.0195    0.0007    0.0071    0.0238   -0.0269
          25   -0.0149    0.0022   -0.0053    0.0307    0.0356   -0.0170   -0.0012   -0.0172
          26    0.0188    0.0093    0.0107   -0.0135    0.0016    0.0134   -0.0373   -0.0153
          27   -0.0152   -0.0233   -0.0326   -0.0153   -0.0178    0.0130    0.0205   -0.0135
          28   -0.0159   -0.0009   -0.0039    0.0328    0.0348   -0.0191   -0.0022    0.0101
          29    0.0028    0.0131    0.0196    0.0148   -0.0618   -0.0071   -0.0066   -0.0479
          30   -0.0330   -0.0364   -0.0161    0.0025    0.1033    0.0016   -0.0182    0.0652
          31   -0.0024    0.0133   -0.0239    0.0180   -0.0357   -0.0068    0.0195   -0.0667
          32   -0.0289   -0.0009   -0.0557    0.0189    0.0497    0.0015   -0.0281   -0.0045
          33   -0.0331   -0.0365   -0.0161    0.0027    0.1031    0.0014   -0.0180    0.0648
          34    0.0709   -0.0054   -0.0182   -0.0584    0.0088    0.0418    0.0582    0.0153
          35   -0.0665    0.0424    0.0372    0.0390   -0.0052   -0.0423   -0.0274    0.0396
          36   -0.0157   -0.0291    0.0265    0.0399   -0.0002   -0.0260   -0.0766   -0.0297
          37   -0.0483    0.0110    0.0338    0.0201   -0.0014   -0.0193   -0.0573    0.0433
          38   -0.0583    0.0291    0.0426    0.0655   -0.0119   -0.0496   -0.0708    0.0472
          39   -0.0679    0.0016    0.0319    0.0117    0.0104   -0.0305   -0.0254   -0.0364
          40   -0.0012   -0.0156    0.0392   -0.0162   -0.0149   -0.0013    0.0228    0.0101
          41    0.0028    0.0132    0.0198    0.0147   -0.0611   -0.0071   -0.0049   -0.0456
          42    0.0117   -0.0173    0.1011   -0.0120   -0.0688   -0.0076    0.0207    0.0064
          43    0.0120    0.0071   -0.0315   -0.0022    0.0239    0.0062   -0.0057   -0.0212
          44   -0.0295   -0.0018   -0.0577    0.0224    0.0467   -0.0006   -0.0259   -0.0107
          45    0.0114   -0.0177    0.1022   -0.0122   -0.0694   -0.0078    0.0220    0.0075
          46   -0.0014   -0.0683    0.0398   -0.0101    0.0417   -0.0413    0.0171   -0.0654
          47    0.0551   -0.0322    0.0340    0.1145    0.0026    0.1746    0.0361    0.0065
          48    0.0155   -0.0055    0.0103    0.0479   -0.0065    0.0938   -0.0082   -0.0200
          49   -0.0730   -0.0210    0.0720    0.0873    0.0257    0.1189    0.0211   -0.0147
          50    0.1101   -0.0529   -0.0048    0.0012    0.0094   -0.0117    0.0172   -0.0169
          51    0.0130    0.0517   -0.0378   -0.0842   -0.0266   -0.1242   -0.0664    0.0371
          52    0.0498   -0.0435   -0.0036   -0.0775    0.0219   -0.1080   -0.0074   -0.0191
          53    0.1033   -0.0421   -0.0215   -0.0693    0.0103   -0.1476   -0.0066   -0.0165
          54    0.0636    0.0237   -0.0280    0.0044   -0.0294    0.0741   -0.0282    0.0341
          55    0.0084   -0.0050    0.0043   -0.0168    0.0092    0.0089   -0.0228   -0.0038
          56    0.0026   -0.0065    0.0007   -0.0263    0.0026    0.0198   -0.0493    0.0039
          57    0.0407    0.0311   -0.0136    0.0387    0.0223   -0.0180    0.0154    0.0136
          58    0.0175    0.0956    0.0122   -0.0421    0.0209    0.0362    0.0140    0.0055
          59    0.0018    0.0716    0.0239   -0.0557    0.0477    0.0238    0.0899   -0.0200
          60   -0.0072    0.1034    0.0169   -0.0337    0.0291    0.0221    0.0210   -0.0690
          61   -0.0186   -0.0574   -0.0444    0.0405   -0.0744   -0.0231   -0.0022    0.0572
          62   -0.0314   -0.0609   -0.0246    0.0203   -0.0357   -0.0293    0.0756    0.0335
          63   -0.0269   -0.0946   -0.0586    0.0066   -0.0721   -0.0030    0.0145    0.0705


   Root No.       9        10        11        12        13        14        15        16

                 9 A      10 A      11 A      12 A      13 A      14 A      15 A      16 A   

                 414.7     454.4     559.9     593.7     705.4     813.4     825.7     902.5
  
           1   -0.0035   -0.0006   -0.0087    0.0051    0.0591   -0.0006    0.0038   -0.0088
           2    0.0100   -0.0296    0.0348   -0.0082    0.0081    0.0001    0.0051   -0.0122
           3    0.0389   -0.0145   -0.0267   -0.0444    0.0298    0.0118    0.0074   -0.0035
           4   -0.0085    0.0002   -0.0253    0.0015    0.0484   -0.0007    0.0109    0.0170
           5   -0.0123    0.0041   -0.0073   -0.0083   -0.0508    0.0008   -0.0058    0.0079
           6    0.0040    0.0040    0.0053   -0.0008    0.0033    0.0038   -0.0259   -0.0001
           7    0.0050   -0.0340    0.0358   -0.0154   -0.0188    0.0007   -0.0109    0.0157
           8   -0.0109   -0.0005   -0.0050   -0.0082   -0.0560    0.0011   -0.0017   -0.0065
           9   -0.0043    0.0045   -0.0010    0.0092   -0.0056   -0.0049   -0.0338   -0.0065
          10   -0.0171   -0.0376   -0.0267   -0.0078    0.0048    0.0004    0.0011    0.0021
          11    0.0269   -0.0042   -0.0174   -0.0064    0.0000    0.0364    0.0003   -0.0030
          12   -0.0188   -0.0009    0.0165    0.0074   -0.0010    0.0127   -0.0007    0.0014
          13   -0.0045    0.0026    0.0044    0.0030    0.0033   -0.0018    0.0003   -0.0076
          14    0.0234    0.0145   -0.0025   -0.0043   -0.0023    0.0099    0.0002   -0.0056
          15   -0.0394   -0.0330    0.0005    0.0029    0.0052   -0.0024   -0.0001   -0.0067
          16    0.0031   -0.0285    0.0208   -0.0113   -0.0446    0.0004   -0.0020   -0.0039
          17    0.0038   -0.0189    0.0452   -0.0052    0.0399   -0.0003   -0.0072    0.0094
          18    0.0447   -0.0356   -0.0296    0.0650   -0.0075   -0.0013    0.0268    0.0037
          19    0.0090    0.0350    0.0404    0.0317    0.0135   -0.0044    0.0001   -0.0434
          20   -0.0208   -0.0120   -0.0107    0.0121    0.0089   -0.0174    0.0023   -0.0296
          21    0.0138    0.0164   -0.0119   -0.0190   -0.0148   -0.0091    0.0020   -0.0151
          22    0.0391    0.0218    0.0030   -0.0090   -0.0150    0.0044   -0.0031    0.0227
          23   -0.0125   -0.0043   -0.0107    0.0166    0.0029   -0.0024    0.0012    0.0116
          24    0.0017    0.0373    0.0238    0.0157   -0.0100    0.0050   -0.0011    0.0253
          25   -0.0282    0.0092   -0.0314    0.0033    0.1058    0.0075   -0.0296    0.0556
          26    0.0381   -0.0769    0.0628    0.0381   -0.0093    0.0129    0.0666    0.0119
          27    0.0370    0.0025   -0.0276   -0.0615    0.0140    0.0018   -0.0032   -0.0436
          28   -0.0379    0.0257   -0.0031    0.0626    0.0025   -0.0261    0.0797    0.0148
          29   -0.0249    0.0155   -0.0423   -0.0135   -0.0452    0.0002   -0.1555    0.0137
          30   -0.0046    0.0111    0.0360    0.0347   -0.0282   -0.0095    0.0958   -0.0055
          31    0.0098   -0.0026   -0.0843   -0.0516    0.1166    0.0205   -0.0525    0.0438
          32   -0.0116    0.0140   -0.0133    0.0024   -0.0708   -0.0016    0.1499    0.0176
          33   -0.0050    0.0110    0.0348    0.0341   -0.0418   -0.0093    0.0952   -0.0094
          34   -0.0593   -0.0304   -0.0122    0.0377    0.0056    0.1729   -0.0004   -0.0221
          35    0.0491   -0.0024   -0.0259   -0.0229   -0.0049   -0.0489    0.0008    0.0457
          36   -0.0081   -0.0135    0.0158   -0.0202    0.0088   -0.0452    0.0005   -0.0720
          37    0.0140   -0.0434   -0.0372   -0.0421    0.0068   -0.1366    0.0027    0.0181
          38    0.0671   -0.0103   -0.0315   -0.0482   -0.0003   -0.0857    0.0012   -0.0020
          39   -0.0232   -0.0037    0.0167    0.0064    0.0026   -0.0607    0.0012    0.0333
          40   -0.0366   -0.0029    0.1016   -0.1363    0.0190    0.0235    0.0611    0.0442
          41   -0.0259    0.0157   -0.0312   -0.0250   -0.0724    0.0029    0.1575   -0.0018
          42   -0.0335    0.0291    0.0193   -0.0632    0.0068    0.0081    0.0933    0.0102
          43    0.0564   -0.0878    0.0238    0.0952   -0.0388   -0.0217   -0.1027    0.0201
          44   -0.0090    0.0084   -0.0324    0.0145   -0.0746   -0.0004   -0.1425   -0.0306
          45   -0.0342    0.0302    0.0207   -0.0663    0.0146    0.0088    0.0978    0.0054
          46    0.0199    0.0586    0.0472    0.0156   -0.0104   -0.0067   -0.0042    0.0257
          47    0.0065    0.0026   -0.0086   -0.0050   -0.0003   -0.0384    0.0012    0.0168
          48   -0.0350   -0.0053    0.0239    0.0105   -0.0019   -0.0351   -0.0024    0.0269
          49   -0.0075    0.0007    0.0035    0.0079    0.0033    0.0809   -0.0004   -0.0474
          50    0.0272    0.0325    0.0116   -0.0034   -0.0073   -0.0752   -0.0007    0.0500
          51   -0.0422   -0.0654   -0.0260   -0.0053    0.0148    0.0598    0.0024   -0.0648
          52   -0.0012    0.0056    0.0068   -0.0005    0.0031   -0.0693    0.0006    0.0250
          53    0.0391    0.0353    0.0113   -0.0036   -0.0073   -0.0163   -0.0011    0.0184
          54   -0.0642   -0.0691   -0.0228   -0.0067    0.0149   -0.1037    0.0032    0.0196
          55   -0.0152    0.0306   -0.0365   -0.0003   -0.0505    0.0005    0.0030   -0.0109
          56   -0.0114    0.0375   -0.0103    0.0103    0.0542   -0.0006   -0.0012    0.0086
          57   -0.0198    0.0151    0.0080   -0.0188    0.0047    0.0003   -0.0043   -0.0005
          58    0.0642    0.0396    0.0046   -0.0318   -0.0034   -0.0508   -0.0002   -0.0359
          59    0.0027   -0.0070   -0.0360   -0.0174    0.0124   -0.0676    0.0082   -0.0310
          60    0.0429    0.0830    0.0630    0.0074    0.0030   -0.0342   -0.0037   -0.0529
          61   -0.0241    0.0299    0.0395    0.0694   -0.0126    0.0170   -0.0049    0.1069
          62   -0.0661   -0.0156   -0.0154    0.0625    0.0068   -0.0081    0.0010    0.0878
          63    0.0011    0.0097   -0.0055   -0.0006   -0.0762    0.0287   -0.0075    0.1768


   Root No.      17        18        19        20        21        22        23        24

                17 A      18 A      19 A      20 A      21 A      22 A      23 A      24 A   

                 911.6     920.8     949.5     972.7    1009.0    1025.6    1031.9    1075.2
  
           1    0.0023   -0.0042   -0.0201    0.0119   -0.0111    0.0138   -0.0188    0.0064
           2    0.0333    0.0016    0.0204   -0.0071   -0.0160   -0.0131    0.0178    0.0134
           3    0.0122   -0.0029   -0.0092    0.0011   -0.0149   -0.0032   -0.0093    0.0043
           4    0.0008    0.0051    0.0425   -0.0242   -0.0033   -0.0086    0.0097   -0.0121
           5   -0.0191    0.0008   -0.0028    0.0002    0.0329   -0.0233    0.0203    0.0036
           6    0.0199    0.0000   -0.0099    0.0085    0.0075   -0.0033    0.0155    0.0150
           7   -0.0327    0.0011   -0.0047    0.0005    0.0211   -0.0103    0.0064   -0.0003
           8    0.0048   -0.0034   -0.0152    0.0077   -0.0173    0.0188   -0.0182   -0.0005
           9   -0.0102    0.0017    0.0092   -0.0042   -0.0265   -0.0027    0.0050   -0.0273
          10   -0.0039   -0.0020   -0.0083   -0.0067   -0.0002    0.0030   -0.0054   -0.0024
          11   -0.0037    0.0017   -0.0057   -0.0059   -0.0084   -0.0245   -0.0132    0.0035
          12    0.0008   -0.0011    0.0043   -0.0002   -0.0033   -0.0042    0.0004    0.0006
          13    0.0010    0.0048   -0.0112   -0.0138   -0.0006   -0.0026    0.0043    0.0017
          14   -0.0071    0.0081   -0.0020   -0.0096    0.0052    0.0186    0.0093   -0.0015
          15    0.0035    0.0037    0.0169    0.0275    0.0013   -0.0099   -0.0077    0.0009
          16    0.0077   -0.0009   -0.0016    0.0003   -0.0220    0.0181   -0.0146   -0.0081
          17   -0.0174   -0.0002   -0.0031   -0.0005   -0.0161    0.0185   -0.0173   -0.0116
          18    0.0019   -0.0007   -0.0120    0.0070    0.0433    0.0022   -0.0124    0.0009
          19    0.0133   -0.0103   -0.0153    0.0018    0.0090   -0.0152    0.0077   -0.0022
          20   -0.0005   -0.0047    0.0076    0.0092    0.0093   -0.0057    0.0048    0.0074
          21   -0.0255   -0.0060    0.0164   -0.0098    0.0078    0.0031   -0.0013    0.0140
          22   -0.0001   -0.0208    0.0182    0.0137   -0.0010    0.0148    0.0060    0.0008
          23    0.0091   -0.0203   -0.0019    0.0059    0.0031    0.0088    0.0066   -0.0045
          24    0.0018   -0.0274   -0.0105   -0.0162    0.0004    0.0230    0.0091   -0.0065
          25   -0.0212   -0.0014   -0.0607    0.0698    0.0041    0.0389    0.0441    0.1780
          26    0.1760    0.0079    0.0822   -0.0618    0.0191    0.0159    0.0556    0.0426
          27   -0.0410   -0.0067   -0.0148   -0.0042   -0.0375   -0.0273   -0.0572   -0.0906
          28   -0.0836    0.0071    0.1276   -0.1035    0.0089    0.0166   -0.1006    0.0562
          29   -0.0005   -0.0002    0.0388   -0.0436    0.0930   -0.0075   -0.0332    0.1251
          30   -0.0348    0.0015    0.0132   -0.0103   -0.0205    0.0010   -0.0138   -0.0154
          31    0.0599    0.0181   -0.0076    0.0331    0.0161   -0.0376    0.1202   -0.1134
          32   -0.0540    0.0126   -0.0154    0.0241    0.0080   -0.0490    0.0765   -0.1532
          33   -0.0329   -0.0005    0.0098   -0.0091   -0.0173   -0.0017   -0.0139   -0.0149
          34   -0.0150    0.0115   -0.0127   -0.0173   -0.0185   -0.0473   -0.0282    0.0041
          35    0.0145   -0.0415   -0.0205   -0.0080   -0.0238   -0.0610   -0.0392    0.0051
          36   -0.0230    0.0752    0.0438    0.0214    0.0561    0.1440    0.0876   -0.0118
          37    0.0055   -0.0130   -0.0132   -0.0059    0.0129    0.0388    0.0100   -0.0089
          38   -0.0073    0.0124    0.0161    0.0275    0.0220    0.0496    0.0073   -0.0105
          39    0.0247   -0.0406   -0.0419   -0.0566   -0.0273   -0.0539   -0.0013    0.0112
          40    0.0048   -0.0029   -0.0420    0.0004    0.2414   -0.0143   -0.0492   -0.0155
          41   -0.0149   -0.0037   -0.0248    0.0337   -0.1506    0.0261    0.0340    0.0914
          42    0.0005   -0.0007   -0.0162    0.0107    0.0153   -0.0008    0.0047    0.0143
          43   -0.1578    0.0070   -0.0087    0.0193   -0.0986   -0.0429    0.0828    0.0269
          44    0.0870   -0.0036    0.0296   -0.0363    0.0392    0.0443   -0.0907   -0.1095
          45    0.0140   -0.0014   -0.0137    0.0096    0.0115    0.0013    0.0023    0.0152
          46    0.0197   -0.0206    0.0911    0.1420   -0.0051   -0.0542   -0.0529    0.0018
          47    0.0061   -0.0180   -0.0367   -0.0456   -0.0077   -0.0055    0.0057    0.0006
          48    0.0233   -0.0275    0.0606    0.1040   -0.0092   -0.0569   -0.0453    0.0024
          49   -0.0219    0.0473    0.0252    0.0173    0.0192    0.0390    0.0172   -0.0016
          50    0.0229   -0.0478   -0.0064    0.0093   -0.0179   -0.0422   -0.0249    0.0013
          51   -0.0260    0.0596   -0.0189   -0.0465    0.0213    0.0557    0.0418   -0.0002
          52    0.0215   -0.0297   -0.0340   -0.0272   -0.0172   -0.0430   -0.0111    0.0053
          53    0.0050   -0.0141    0.0229    0.0350   -0.0016   -0.0088   -0.0143   -0.0016
          54    0.0252   -0.0310   -0.0855   -0.0940   -0.0225   -0.0453    0.0054    0.0087
          55    0.0174   -0.0011   -0.0015    0.0022   -0.0031   -0.0021    0.0036    0.0046
          56   -0.0162    0.0004   -0.0010   -0.0006    0.0053    0.0009   -0.0033   -0.0032
          57   -0.0010    0.0000    0.0014   -0.0009   -0.0056   -0.0003    0.0012   -0.0006
          58   -0.0066    0.1929    0.0116    0.0207    0.0015   -0.0291   -0.0219    0.0134
          59   -0.0102    0.1714    0.0169    0.0398    0.0225    0.0003   -0.0148   -0.0126
          60    0.0135    0.2082   -0.0518   -0.0484   -0.0215   -0.0699   -0.0251    0.0346
          61    0.0557    0.1263   -0.0480    0.0128   -0.0189    0.0147   -0.0111   -0.0258
          62    0.0392    0.1127   -0.0556    0.0369    0.0002    0.0464   -0.0298   -0.0441
          63    0.0197    0.1537    0.0316   -0.0246   -0.0458   -0.0005    0.0046    0.0321


   Root No.      25        26        27        28        29        30        31        32

                25 A      26 A      27 A      28 A      29 A      30 A      31 A      32 A   

                1085.5    1099.9    1115.9    1116.7    1124.2    1132.5    1178.6    1200.9
  
           1    0.0190   -0.0150    0.0056    0.0204    0.0036   -0.0025    0.0226   -0.0180
           2    0.0215   -0.0128    0.0031   -0.0215    0.0294    0.0234   -0.0143    0.0138
           3    0.0381   -0.0019    0.0049    0.0114    0.0167    0.0017    0.0032   -0.0010
           4   -0.0067   -0.0052   -0.0064   -0.0250   -0.0145    0.0013   -0.0145    0.0085
           5    0.0217    0.0127    0.0050    0.0098    0.0199    0.0071   -0.0098    0.0089
           6   -0.0063    0.0323   -0.0034   -0.0144   -0.0320   -0.0023    0.0027   -0.0002
           7    0.0100   -0.0376   -0.0057   -0.0162   -0.0272   -0.0055   -0.0081    0.0144
           8   -0.0092   -0.0315   -0.0052   -0.0062   -0.0283   -0.0112    0.0147   -0.0170
           9    0.0039   -0.0237    0.0020    0.0167    0.0164   -0.0020   -0.0005   -0.0014
          10    0.0017   -0.0001    0.0318    0.0173   -0.0198    0.0299   -0.0349   -0.0106
          11   -0.0094   -0.0010    0.0261   -0.0020    0.0024   -0.0266    0.0045    0.0033
          12   -0.0082   -0.0040    0.0412    0.0027   -0.0056    0.0151    0.0076    0.0197
          13    0.0009    0.0023   -0.0371   -0.0103    0.0149   -0.0351    0.0111    0.0083
          14    0.0023   -0.0009   -0.0295    0.0080   -0.0057    0.0305   -0.0009   -0.0012
          15    0.0039    0.0025   -0.0438   -0.0014    0.0051   -0.0091    0.0017   -0.0053
          16   -0.0317    0.0449    0.0013    0.0064    0.0180    0.0030   -0.0036    0.0013
          17   -0.0323    0.0383   -0.0003    0.0059    0.0080   -0.0012   -0.0024    0.0011
          18   -0.0164    0.0052   -0.0017   -0.0192    0.0018    0.0065   -0.0027    0.0012
          19    0.0026    0.0080    0.0024   -0.0003   -0.0044    0.0116   -0.0001    0.0101
          20   -0.0118   -0.0036    0.0013   -0.0054    0.0021   -0.0020    0.0029   -0.0170
          21   -0.0327   -0.0118   -0.0011    0.0202   -0.0105   -0.0150   -0.0082    0.0082
          22    0.0019   -0.0025    0.0029   -0.0118    0.0114   -0.0060    0.0248   -0.0024
          23    0.0138    0.0023   -0.0013   -0.0135    0.0078    0.0033    0.0082   -0.0182
          24    0.0124    0.0037   -0.0058    0.0064   -0.0031   -0.0028   -0.0218    0.0096
          25   -0.1087   -0.1088    0.0079    0.0417    0.1591    0.0245   -0.0614    0.0498
          26    0.0139   -0.0563    0.0037    0.1788   -0.0945   -0.0998    0.0411   -0.0358
          27    0.1014    0.0647    0.0036   -0.0868   -0.0027    0.0431    0.0187   -0.0113
          28    0.0421    0.0727    0.0117    0.0310    0.0415   -0.0017    0.0257   -0.0181
          29    0.0435    0.1917    0.0137    0.0256   -0.0102   -0.0004    0.0336   -0.0158
          30    0.0095   -0.0220    0.0014    0.0062    0.0132    0.0003    0.0006   -0.0009
          31   -0.1206    0.0984   -0.0113    0.0111   -0.0430   -0.0244    0.0138   -0.0329
          32   -0.0441    0.0304    0.0137    0.0935    0.0911   -0.0087    0.0134   -0.0315
          33    0.0207   -0.0133    0.0041    0.0113    0.0204    0.0029    0.0010    0.0000
          34   -0.0221   -0.0045    0.1449    0.0153   -0.0237   -0.0006   -0.0328    0.0031
          35   -0.0132    0.0008   -0.1356    0.0367   -0.0119    0.0151   -0.0132    0.0328
          36    0.0331   -0.0015    0.2458   -0.0787    0.0299   -0.0343    0.0404   -0.0651
          37    0.0198    0.0029   -0.0280    0.0325   -0.0345    0.0958   -0.0623   -0.0375
          38    0.0350    0.0158   -0.0194    0.0078   -0.0020   -0.0826   -0.0968    0.0068
          39   -0.0474   -0.0267    0.0005    0.0138   -0.0245    0.2319    0.1282   -0.0341
          40    0.0009   -0.0451    0.0007    0.0055   -0.0109   -0.0120    0.0434   -0.0584
          41   -0.0173    0.0376   -0.0224   -0.0804   -0.1237   -0.0120   -0.0249    0.0460
          42   -0.0047    0.0089   -0.0037   -0.0123   -0.0248   -0.0048    0.0043   -0.0045
          43    0.0711   -0.0171    0.0032    0.0559   -0.0521   -0.0352    0.0523   -0.0615
          44   -0.0568   -0.1448   -0.0121   -0.0302    0.0195    0.0000   -0.0373    0.0440
          45   -0.0059    0.0270    0.0004   -0.0107    0.0027    0.0075   -0.0056    0.0071
          46    0.0069    0.0046   -0.0117    0.0060   -0.0059   -0.0113   -0.0186   -0.0372
          47   -0.0070   -0.0016    0.0337   -0.0054    0.0041   -0.0160    0.0097    0.0179
          48    0.0019    0.0034    0.0102   -0.0007   -0.0009   -0.0225   -0.0073   -0.0240
          49    0.0144    0.0041   -0.1528    0.0057    0.0072    0.0218    0.0077   -0.0098
          50   -0.0103   -0.0024    0.1060    0.0028   -0.0107   -0.0101   -0.0164    0.0060
          51    0.0116    0.0032   -0.1725   -0.0111    0.0249   -0.0003    0.0384    0.0018
          52   -0.0086    0.0025    0.0370   -0.0282    0.0277   -0.0982    0.0195    0.0139
          53    0.0013   -0.0004    0.0167    0.0135   -0.0148    0.0277   -0.0173   -0.0065
          54   -0.0158    0.0017    0.0302   -0.0500    0.0499   -0.1379    0.0541    0.0222
          55    0.0057    0.0023    0.0022    0.0027    0.0099    0.0040    0.0007   -0.0013
          56   -0.0004   -0.0102   -0.0023   -0.0025   -0.0133   -0.0052    0.0016   -0.0006
          57    0.0023   -0.0008    0.0002    0.0021   -0.0004   -0.0008    0.0004   -0.0002
          58   -0.0297   -0.0083    0.0215    0.0142   -0.0130    0.0092    0.0371    0.0453
          59   -0.0126   -0.0003    0.0359    0.0449   -0.0372    0.0382    0.0988    0.1853
          60   -0.0264   -0.0066   -0.0154   -0.0171    0.0048   -0.0194   -0.1221   -0.1695
          61    0.0710    0.0234    0.0034   -0.0021    0.0053    0.0085   -0.0028    0.0254
          62    0.1151    0.0498    0.0126    0.0476   -0.0212   -0.0472   -0.0506    0.0719
          63   -0.0518   -0.0527   -0.0161   -0.0626    0.0473    0.0390    0.0579   -0.0881


   Root No.      33        34        35        36        37        38        39        40

                33 A      34 A      35 A      36 A      37 A      38 A      39 A      40 A   

                1228.4    1253.7    1265.7    1338.6    1383.8    1393.1    1406.7    1410.9
  
           1   -0.0101   -0.0333   -0.0107    0.0283    0.0250   -0.0112    0.0030   -0.0048
           2   -0.0109    0.0341    0.0125    0.0132    0.0209   -0.0079    0.0036   -0.0063
           3    0.0042   -0.0015    0.0175   -0.0166   -0.0231    0.0073   -0.0033    0.0059
           4    0.0036    0.0123   -0.0436   -0.0114   -0.0126   -0.0121    0.0010   -0.0027
           5    0.0098   -0.0354   -0.0463   -0.0030   -0.0038    0.0090   -0.0026    0.0056
           6   -0.0017   -0.0015   -0.0051    0.0034    0.0040   -0.0010    0.0005   -0.0009
           7    0.0166   -0.0302    0.0443    0.0047    0.0148    0.0220   -0.0003   -0.0001
           8   -0.0168    0.0468   -0.0066   -0.0039    0.0114    0.0214    0.0000   -0.0012
           9    0.0008    0.0001    0.0018   -0.0019   -0.0022    0.0003   -0.0002    0.0004
          10   -0.0143   -0.0011    0.0022    0.0050   -0.0183    0.0156    0.0113   -0.0066
          11    0.0029   -0.0031   -0.0002   -0.0233   -0.0051    0.0084   -0.0003   -0.0016
          12   -0.0031    0.0104   -0.0052    0.0502    0.0088   -0.0139    0.0016    0.0005
          13   -0.0012    0.0005   -0.0013    0.0137   -0.0116    0.0051    0.0014   -0.0174
          14    0.0030    0.0020   -0.0004    0.0013    0.0044   -0.0024   -0.0256   -0.0217
          15    0.0007   -0.0030    0.0013    0.0028   -0.0153    0.0082   -0.0259    0.0236
          16    0.0018   -0.0046   -0.0183   -0.0055   -0.0072   -0.0021   -0.0006    0.0011
          17    0.0038   -0.0110   -0.0152   -0.0056   -0.0074   -0.0013   -0.0008    0.0014
          18   -0.0010    0.0036   -0.0024    0.0036    0.0036   -0.0012    0.0004   -0.0007
          19   -0.0201   -0.0026    0.0135   -0.0192   -0.0169    0.0073   -0.0017    0.0026
          20    0.0086   -0.0030   -0.0003    0.0165    0.0001   -0.0043   -0.0009    0.0028
          21    0.0142    0.0059   -0.0127    0.0021    0.0123   -0.0020    0.0022   -0.0041
          22    0.0373    0.0092   -0.0066    0.0195    0.0077   -0.0072   -0.0015    0.0021
          23   -0.0077   -0.0128    0.0072   -0.0052   -0.0113    0.0037   -0.0020    0.0033
          24   -0.0252   -0.0003    0.0023   -0.0182    0.0030    0.0035    0.0019   -0.0045
          25    0.0135    0.0610    0.0547   -0.0399   -0.0308    0.0068   -0.0025    0.0036
          26    0.0242   -0.0738   -0.0133   -0.0107   -0.0181    0.0073   -0.0034    0.0061
          27   -0.0221    0.0005   -0.0044    0.0262    0.0201   -0.0086    0.0024   -0.0036
          28   -0.0147    0.0825    0.1609   -0.0123    0.0102    0.0836   -0.0112    0.0231
          29   -0.0039   -0.0129    0.1440    0.0302    0.0105   -0.0640    0.0120   -0.0246
          30   -0.0035    0.0211    0.0002   -0.0138    0.0065    0.0780   -0.0122    0.0255
          31   -0.0161    0.0817    0.1332    0.0122    0.0382    0.0751   -0.0072    0.0164
          32    0.0027   -0.0081    0.1490    0.0336    0.0137   -0.0656    0.0127   -0.0257
          33    0.0043   -0.0226    0.0045    0.0092   -0.0122   -0.0761    0.0113   -0.0241
          34   -0.0096    0.0033    0.0027   -0.0744    0.1149   -0.0811   -0.0409    0.0080
          35   -0.0205    0.0103   -0.0076    0.0675   -0.0473    0.0320    0.0236   -0.0100
          36    0.0396   -0.0258    0.0116   -0.0601   -0.0506    0.0444    0.0067    0.0011
          37   -0.0189   -0.0053    0.0112   -0.0702    0.0866   -0.0614   -0.0327    0.0058
          38   -0.0913   -0.0044    0.0057   -0.0109    0.0935   -0.0741   -0.0348    0.0053
          39    0.1409    0.0030    0.0011   -0.0993    0.0210   -0.0059   -0.0171    0.0105
          40   -0.0512    0.1322   -0.0329   -0.0172   -0.0647   -0.0879    0.0006    0.0018
          41    0.0435   -0.0714    0.1163   -0.0049   -0.0660   -0.0883   -0.0010    0.0058
          42   -0.0019    0.0179    0.0250   -0.0111   -0.0724   -0.0998   -0.0001    0.0043
          43   -0.0492    0.1237   -0.0285   -0.0235   -0.0686   -0.0818   -0.0002    0.0030
          44    0.0473   -0.0662    0.1253   -0.0081   -0.0700   -0.0878   -0.0014    0.0066
          45    0.0028   -0.0219   -0.0260    0.0134    0.0759    0.1019    0.0003   -0.0046
          46    0.0120   -0.0157    0.0071   -0.1078    0.0418   -0.0072   -0.0008   -0.1697
          47   -0.0060    0.0036   -0.0023    0.0133    0.0038   -0.0049    0.3011    0.0723
          48    0.0071   -0.0132    0.0058   -0.0776    0.0246   -0.0030    0.1791   -0.0523
          49    0.0104   -0.0036    0.0016   -0.0498    0.0448   -0.0246   -0.0960    0.2173
          50   -0.0135    0.0037   -0.0011    0.0578   -0.0491    0.0235   -0.0670   -0.0677
          51    0.0213   -0.0025   -0.0004   -0.0521    0.0393   -0.0153    0.2282   -0.1402
          52   -0.0011   -0.0037   -0.0008   -0.0427    0.0414   -0.0229    0.0398    0.1975
          53   -0.0064   -0.0011    0.0017   -0.0089    0.0127   -0.0100    0.1014    0.2512
          54    0.0163   -0.0046   -0.0023   -0.0772    0.0642   -0.0289   -0.1321   -0.0627
          55   -0.0042    0.0068   -0.0041    0.0008    0.0013   -0.0003    0.0001   -0.0001
          56    0.0030   -0.0054    0.0054    0.0002    0.0000    0.0008    0.0000   -0.0001
          57    0.0002   -0.0006    0.0006   -0.0005   -0.0006    0.0002   -0.0001    0.0001
          58    0.0181    0.0113   -0.0128    0.0147    0.0068   -0.0069   -0.0008    0.0013
          59   -0.1146   -0.0135   -0.0012   -0.0518   -0.0082    0.0066   -0.0059   -0.0050
          60    0.0745    0.0020    0.0015    0.0332   -0.0056    0.0013    0.0079    0.0045
          61    0.0125    0.0176    0.0122   -0.0214   -0.0128    0.0072   -0.0013    0.0016
          62    0.1791    0.1098   -0.0149    0.0089    0.0151   -0.0033    0.0024   -0.0025
          63   -0.1516   -0.1070    0.0037    0.0130    0.0042   -0.0059   -0.0014    0.0008


   Root No.      41        42        43        44        45        46        47        48

                41 A      42 A      43 A      44 A      45 A      46 A      47 A      48 A   

                1412.7    1421.3    1440.9    1889.7    2071.5    2937.6    2945.0    3024.2
  
           1   -0.0103    0.0083   -0.0428   -0.0163   -0.0002   -0.0278   -0.0001    0.0000
           2   -0.0149    0.0005   -0.0397   -0.0260   -0.0279   -0.0254   -0.0001   -0.0001
           3    0.0138   -0.0009    0.0406    0.0316   -0.0013   -0.0578   -0.0001    0.0000
           4   -0.0077   -0.0186    0.0201    0.0008    0.0247   -0.0009    0.0000    0.0001
           5    0.0150    0.0224   -0.0106    0.0020   -0.0262   -0.0003    0.0000   -0.0001
           6   -0.0020    0.0003   -0.0059   -0.0028   -0.0004    0.0039    0.0000    0.0008
           7   -0.0014   -0.0091    0.0120    0.0021    0.0332    0.0005    0.0000    0.0000
           8   -0.0046   -0.0173    0.0201    0.0015   -0.0002    0.0005    0.0000    0.0000
           9    0.0010    0.0000    0.0025    0.0003   -0.0008   -0.0001    0.0000   -0.0004
          10   -0.0297    0.0111   -0.0034    0.0110   -0.0005   -0.0001    0.0063   -0.0336
          11   -0.0081   -0.0103   -0.0277    0.0215   -0.0001    0.0002   -0.0497   -0.0038
          12    0.0061    0.0233    0.0480   -0.0282    0.0003    0.0000   -0.0256    0.0012
          13    0.0229   -0.0194   -0.0157    0.0003    0.0002    0.0000   -0.0004    0.0022
          14   -0.0077    0.0111    0.0105    0.0011    0.0000    0.0000    0.0024    0.0011
          15    0.0122   -0.0247   -0.0247   -0.0020   -0.0001    0.0000    0.0012   -0.0022
          16    0.0028    0.0011    0.0045   -0.0013   -0.3224    0.0000    0.0000    0.0000
          17    0.0034    0.0016    0.0049   -0.0008    0.3240   -0.0016    0.0000    0.0000
          18   -0.0017    0.0002   -0.0045    0.0018    0.0120   -0.0003    0.0000    0.0000
          19    0.0056   -0.0024    0.0223   -0.0341   -0.0026    0.0002    0.0006   -0.0039
          20    0.0071    0.0053    0.0188    0.2105    0.0003    0.0004   -0.0001    0.0030
          21   -0.0103   -0.0025   -0.0300   -0.1342    0.0026   -0.0006   -0.0006    0.0010
          22    0.0070    0.0029    0.0071    0.0369    0.0010   -0.0002   -0.0019    0.0052
          23    0.0085    0.0005    0.0218   -0.2084    0.0010   -0.0004    0.0008   -0.0040
          24   -0.0114   -0.0052   -0.0274    0.1311   -0.0021    0.0002    0.0010   -0.0014
          25    0.0068   -0.0130    0.0405   -0.0051   -0.0169    0.3393    0.0009   -0.0001
          26    0.0147    0.0036    0.0276    0.0106    0.0131    0.3114    0.0008    0.0001
          27   -0.0073    0.0081   -0.0290    0.0046    0.0015    0.7081    0.0018    0.0000
          28    0.0587    0.0758   -0.0199    0.0094    0.0101    0.0081    0.0000    0.0022
          29   -0.0636   -0.0856    0.0306   -0.0009   -0.0092   -0.0141    0.0000   -0.0022
          30    0.0662    0.0944   -0.0415    0.0036   -0.0275   -0.0249    0.0000   -0.0039
          31    0.0430    0.0765   -0.0618   -0.0074    0.0084   -0.0092    0.0002   -0.0032
          32   -0.0661   -0.0861    0.0259   -0.0032   -0.0085    0.0131   -0.0001    0.0031
          33   -0.0628   -0.0941    0.0499   -0.0013    0.0273   -0.0246    0.0003   -0.0060
          34    0.1134   -0.0368    0.0030    0.0121    0.0002   -0.0013    0.2222    0.1539
          35   -0.0603    0.0329    0.0146    0.0022    0.0002   -0.0020    0.3546    0.2973
          36   -0.0413   -0.0172   -0.0508   -0.0058   -0.0007   -0.0007    0.1595    0.1361
          37    0.0906   -0.0304    0.0051   -0.0032   -0.0001    0.0014   -0.2940    0.2550
          38    0.0987   -0.0116    0.0446   -0.0345    0.0003   -0.0011    0.2432   -0.2507
          39    0.0308   -0.0452   -0.0587    0.0334   -0.0002   -0.0007    0.1488   -0.1486
          40    0.0081    0.0342   -0.0342    0.0006   -0.0118    0.0028    0.0000   -0.0012
          41    0.0192    0.0561   -0.0498   -0.0004    0.0243    0.0028    0.0000   -0.0012
          42    0.0157    0.0534   -0.0519   -0.0017   -0.0004   -0.0051   -0.0001    0.0023
          43    0.0107    0.0321   -0.0240    0.0004   -0.0137    0.0009    0.0000    0.0014
          44    0.0212    0.0561   -0.0449    0.0013    0.0243    0.0007    0.0000    0.0013
          45   -0.0166   -0.0543    0.0512    0.0020    0.0014    0.0023    0.0000    0.0024
          46   -0.0615    0.0694    0.0347    0.0061   -0.0005    0.0000   -0.0004   -0.0176
          47    0.0461   -0.0191   -0.0031    0.0014    0.0002    0.0000    0.0000   -0.0132
          48   -0.0124    0.0239    0.0072   -0.0009   -0.0004   -0.0001    0.0008    0.0204
          49   -0.0881    0.0448    0.0351   -0.0006   -0.0003    0.0001   -0.0083   -0.0042
          50    0.0533   -0.0533   -0.0453    0.0017    0.0000    0.0001   -0.0190   -0.0089
          51    0.0097    0.0427    0.0391   -0.0004    0.0004    0.0000   -0.0056   -0.0048
          52   -0.0552    0.0306    0.0263   -0.0005   -0.0001    0.0000    0.0131   -0.0096
          53   -0.0249   -0.0060   -0.0010   -0.0004   -0.0003    0.0000   -0.0128    0.0104
          54   -0.0868    0.0890    0.0679   -0.0028    0.0004    0.0000   -0.0106    0.0053
          55   -0.0001    0.0020   -0.0043   -0.0004    0.2016   -0.0004    0.0000    0.0000
          56   -0.0004   -0.0024    0.0039    0.0003   -0.2065    0.0004    0.0000    0.0000
          57    0.0003   -0.0001    0.0009    0.0001   -0.0078   -0.0002    0.0000    0.0000
          58    0.0028    0.0019    0.0040    0.1155    0.0006    0.0024    0.0203   -0.0601
          59   -0.0079   -0.0102   -0.0152   -0.0076   -0.0020   -0.0006   -0.0156    0.0365
          60    0.0021    0.0071    0.0188   -0.0980    0.0025   -0.0004   -0.0077    0.0241
          61    0.0026   -0.0051    0.0098   -0.1130    0.0009   -0.0025   -0.0055    0.0422
          62   -0.0092   -0.0051   -0.0251    0.0103    0.0057   -0.0004    0.0045   -0.0257
          63    0.0063    0.0071    0.0017    0.0935   -0.0036   -0.0008    0.0018   -0.0168


   Root No.      49        50        51        52        53        54        55        56

                49 A      50 A      51 A      52 A      53 A      54 A      55 A      56 A   

                3032.3    3033.2    3036.0    3047.2    3081.2    3086.0    3104.9    3107.9
  
           1   -0.0002   -0.0005    0.0002   -0.0006    0.0000    0.0000    0.0008   -0.0007
           2    0.0003   -0.0003    0.0003   -0.0004    0.0000    0.0000   -0.0002   -0.0008
           3    0.0000   -0.0008    0.0001   -0.0014    0.0000    0.0000   -0.0002   -0.0002
           4    0.0003   -0.0012    0.0000   -0.0016    0.0000    0.0001    0.0252    0.0050
           5    0.0000    0.0011    0.0000    0.0015    0.0000   -0.0001   -0.0259   -0.0043
           6    0.0041   -0.0242    0.0070   -0.0295    0.0000    0.0000   -0.0049   -0.0009
           7   -0.0001    0.0005   -0.0002   -0.0005    0.0000    0.0000   -0.0046    0.0258
           8    0.0000    0.0001    0.0000    0.0000    0.0000    0.0000   -0.0054    0.0258
           9   -0.0038    0.0246   -0.0124   -0.0273    0.0000    0.0000   -0.0004   -0.0007
          10    0.0027   -0.0017   -0.0047    0.0002   -0.0013    0.0024    0.0000    0.0000
          11    0.0005    0.0003    0.0011   -0.0001    0.0020    0.0010    0.0000    0.0000
          12   -0.0004    0.0003    0.0010   -0.0001    0.0012    0.0002    0.0000    0.0000
          13   -0.0003    0.0001    0.0004    0.0000   -0.0184    0.0353   -0.0001    0.0000
          14    0.0000    0.0001    0.0004    0.0000    0.0377    0.0312   -0.0001    0.0000
          15    0.0004   -0.0001   -0.0002    0.0000    0.0290   -0.0181    0.0000    0.0000
          16    0.0000    0.0000    0.0000    0.0000    0.0000    0.0000   -0.0011    0.0009
          17   -0.0002    0.0000    0.0001   -0.0001    0.0000    0.0000    0.0009    0.0001
          18    0.0002    0.0000   -0.0001   -0.0002    0.0000    0.0000    0.0000    0.0000
          19   -0.0410   -0.0006    0.0080   -0.0011    0.0001   -0.0002    0.0000    0.0000
          20    0.0269   -0.0004   -0.0076    0.0008   -0.0001    0.0002   -0.0001    0.0000
          21    0.0154    0.0007   -0.0012    0.0002    0.0000    0.0000    0.0001    0.0000
          22   -0.0084   -0.0091   -0.0289    0.0024    0.0002    0.0004   -0.0005   -0.0001
          23    0.0026    0.0061    0.0200   -0.0017    0.0000   -0.0004    0.0004    0.0000
          24    0.0054    0.0034    0.0100   -0.0008   -0.0002    0.0003    0.0002    0.0000
          25   -0.0018    0.0063   -0.0022    0.0086    0.0000    0.0000    0.0018    0.0016
          26    0.0002    0.0043   -0.0018    0.0058    0.0000    0.0001    0.0005    0.0012
          27   -0.0011    0.0093   -0.0038    0.0132    0.0000    0.0001    0.0020    0.0032
          28    0.0133   -0.0717    0.0227   -0.0858   -0.0001   -0.0005   -0.1677   -0.0312
          29   -0.0132    0.0715   -0.0224    0.0899    0.0001    0.0005    0.1719    0.0328
          30   -0.0244    0.1313   -0.0425    0.1572    0.0003    0.0010    0.3595    0.0677
          31   -0.0146    0.0863   -0.0225    0.1052    0.0000   -0.0002   -0.1384   -0.0256
          32    0.0147   -0.0841    0.0223   -0.1073    0.0000    0.0001    0.1380    0.0263
          33   -0.0277    0.1607   -0.0420    0.1967    0.0000   -0.0004   -0.3011   -0.0565
          34   -0.0119    0.0048    0.0119   -0.0003   -0.0072   -0.0146    0.0000    0.0000
          35   -0.0228    0.0106    0.0273   -0.0009   -0.0058   -0.0238    0.0001    0.0001
          36   -0.0103    0.0051    0.0134   -0.0005   -0.0044   -0.0140    0.0001    0.0001
          37   -0.0206    0.0151    0.0431   -0.0023    0.0212   -0.0138    0.0002    0.0000
          38    0.0222   -0.0137   -0.0391    0.0020   -0.0175    0.0151   -0.0002    0.0000
          39    0.0105   -0.0090   -0.0256    0.0014   -0.0072    0.0072   -0.0001    0.0000
          40   -0.0120    0.0787   -0.0398   -0.0869    0.0000    0.0000    0.0267   -0.1507
          41   -0.0121    0.0797   -0.0406   -0.0922    0.0000    0.0000    0.0268   -0.1579
          42    0.0228   -0.1499    0.0758    0.1655    0.0000    0.0000   -0.0596    0.3383
          43    0.0128   -0.0843    0.0423    0.0933    0.0000    0.0000    0.0316   -0.1600
          44    0.0120   -0.0798    0.0405    0.0927    0.0000    0.0000    0.0301   -0.1548
          45    0.0225   -0.1487    0.0745    0.1646    0.0000    0.0001    0.0639   -0.3298
          46    0.0022   -0.0012   -0.0040    0.0003    0.0583   -0.2163    0.0004    0.0001
          47    0.0017   -0.0010   -0.0032    0.0003    0.0796   -0.1911    0.0004    0.0000
          48   -0.0026    0.0016    0.0053   -0.0005   -0.0822    0.3269   -0.0006   -0.0001
          49    0.0001   -0.0004   -0.0016    0.0002   -0.1618   -0.1468    0.0003    0.0001
          50    0.0004   -0.0007   -0.0025    0.0003   -0.2430   -0.2692    0.0005    0.0001
          51    0.0003   -0.0004   -0.0014    0.0002   -0.1076   -0.1425    0.0003    0.0001
          52    0.0029    0.0000    0.0000    0.0000    0.3237   -0.0595   -0.0001    0.0000
          53   -0.0029    0.0000    0.0001    0.0000   -0.2886    0.0880    0.0000    0.0000
          54   -0.0013    0.0003    0.0010   -0.0001   -0.1568    0.0309    0.0001    0.0000
          55   -0.0001    0.0000    0.0000    0.0000    0.0000    0.0000    0.0002   -0.0002
          56    0.0000    0.0000    0.0000    0.0000    0.0000    0.0000   -0.0002    0.0003
          57    0.0001    0.0001    0.0000   -0.0001    0.0000    0.0000    0.0000    0.0000
[...]
 FREQ.      1338.57        C  4 --  H 13          +14.4% ( 53.0%)     0.0%
 T-DIPOLE    0.2197        C  4 --  H 12          +13.8% ( 52.0%)     0.1%
 TRAVEL      0.0901        C  4 --  C  8          +13.8% ( 51.9%)    85.4%
 RED. MASS   0.9938        C  4 --  C  5           +8.3% ( 40.3%)    44.0%
 EFF. MASS   6.1986

 VIBRATION   37   37A       ATOM PAIR        ENERGY CONTRIBUTION    RADIAL
 FREQ.      1383.75        C  1 --  C  7          +11.4% ( 43.1%)    90.5%
 T-DIPOLE    0.2566        C  1 --  C  2           +8.3% ( 36.7%)    51.4%
 TRAVEL      0.1027        C  1 --  H  9           +8.1% ( 36.2%)     0.1%
 RED. MASS   0.4189        C  4 --  H 12           +8.0% ( 36.0%)     3.0%
 EFF. MASS   4.6230

 VIBRATION   38   38A       ATOM PAIR        ENERGY CONTRIBUTION    RADIAL
 FREQ.      1393.13        C  3 --  H 14          +16.3% ( 44.7%)     4.4%
 T-DIPOLE    0.1590        C  3 --  H 15          +15.9% ( 44.1%)     5.0%
 TRAVEL      0.1286        C  2 --  H 10           +8.9% ( 33.0%)     2.2%
 RED. MASS   0.2421        C  2 --  H 11           +8.1% ( 31.5%)     3.3%
 EFF. MASS   2.9283

 VIBRATION   39   39A       ATOM PAIR        ENERGY CONTRIBUTION    RADIAL
 FREQ.      1406.72        C  5 --  H 16          +49.3% ( 61.7%)     0.3%
 T-DIPOLE    0.0472        C  5 --  H 17          +26.8% ( 45.5%)     7.7%
 TRAVEL      0.1696        C  5 --  H 18          +13.1% ( 31.9%)    17.2%
 RED. MASS   0.4016        C  4 --  C  5           +5.7% ( 21.0%)    24.8%
 EFF. MASS   1.6659

 VIBRATION   40   40A       ATOM PAIR        ENERGY CONTRIBUTION    RADIAL
 FREQ.      1410.94        C  5 --  H 18          +43.2% ( 58.3%)     0.2%
 T-DIPOLE    0.0833        C  5 --  H 17          +29.7% ( 48.4%)     2.1%
 TRAVEL      0.1670        C  5 --  H 16          +15.4% ( 34.9%)    24.7%
 RED. MASS   0.3717        C  4 --  C  5           +5.2% ( 20.2%)    23.1%
 EFF. MASS   1.7140

 VIBRATION   41   41A       ATOM PAIR        ENERGY CONTRIBUTION    RADIAL
 FREQ.      1412.72        C  4 --  H 13          +12.3% ( 40.9%)     5.8%
 T-DIPOLE    0.1146        C  4 --  H 12          +11.8% ( 40.0%)     6.4%
 TRAVEL      0.1101        C  4 --  C  5           +8.8% ( 34.6%)    49.7%
 RED. MASS   0.2926        C  5 --  H 17           +8.0% ( 32.9%)     2.5%
 EFF. MASS   3.9384

 VIBRATION   42   42A       ATOM PAIR        ENERGY CONTRIBUTION    RADIAL
 FREQ.      1421.26        C  2 --  H 11          +12.4% ( 42.7%)     4.6%
 T-DIPOLE    0.0991        C  2 --  H 10          +12.2% ( 42.5%)     4.9%
 TRAVEL      0.1060        C  4 --  C  5          +10.4% ( 39.3%)    97.5%
 RED. MASS   0.3757        C  5 --  H 18           +8.5% ( 35.5%)     3.5%
 EFF. MASS   4.2208

 VIBRATION   43   43A       ATOM PAIR        ENERGY CONTRIBUTION    RADIAL
 FREQ.      1440.90        C  1 --  C  7          +14.8% ( 62.4%)    95.6%
 T-DIPOLE    0.1044        C  1 --  C  3           +9.2% ( 49.1%)    81.8%
 TRAVEL      0.0704        C  1 --  C  2           +9.1% ( 49.0%)    56.7%
 RED. MASS   1.6827        C  4 --  C  8           +9.1% ( 48.8%)    84.8%
 EFF. MASS   9.4312

 VIBRATION   44   44A       ATOM PAIR        ENERGY CONTRIBUTION    RADIAL
 FREQ.      1889.75        C  7 --  C  8          +43.5% ( 97.5%)    96.3%
 T-DIPOLE    0.0365        C  1 --  C  7          +14.6% ( 56.5%)    58.2%
 TRAVEL      0.0549        C  4 --  C  8          +13.9% ( 55.1%)    54.4%
 RED. MASS   5.3655        C  7 --  H 21          +13.4% ( 54.1%)     3.7%
 EFF. MASS  11.8233        C  8 --  H 20          +13.0% ( 53.3%)     3.7%

 VIBRATION   45   45A       ATOM PAIR        ENERGY CONTRIBUTION    RADIAL
 FREQ.      2071.48        C  6 --  O 19          +42.4% ( 99.1%)   100.0%
 T-DIPOLE    4.7712        C  2 --  C  6          +19.1% ( 66.5%)   100.0%
 TRAVEL      0.0495        C  3 --  C  6          +19.1% ( 66.4%)    54.2%
 RED. MASS   6.8968        C  1 --  C  6          +19.0% ( 66.3%)    51.3%
 EFF. MASS  13.3113

 VIBRATION   46   46A       ATOM PAIR        ENERGY CONTRIBUTION    RADIAL
 FREQ.      2937.60        C  1 --  H  9          +95.8% ( 99.9%)   100.0%
 T-DIPOLE    0.2311        C  1 --  C  2           +1.0% ( 10.1%)    14.0%
 TRAVEL      0.1265        C  1 --  C  3           +1.0% ( 10.0%)    30.6%
 RED. MASS   0.9251        C  1 --  C  7           +1.0% ( 10.0%)     8.9%
 EFF. MASS   1.4337

 VIBRATION   47   47A       ATOM PAIR        ENERGY CONTRIBUTION    RADIAL
 FREQ.      2945.04        C  4 --  H 12          +52.6% ( 75.3%)    96.9%
 T-DIPOLE    0.0254        C  4 --  H 13          +44.7% ( 69.4%)    96.0%
 TRAVEL      0.1218        C  4 --  C  5           +1.2% ( 11.2%)     0.0%
 RED. MASS   0.5170        C  4 --  C  8           +1.1% ( 11.1%)     0.2%
 EFF. MASS   1.5436

 VIBRATION   48   48A       ATOM PAIR        ENERGY CONTRIBUTION    RADIAL
 FREQ.      3024.21        C  4 --  H 13          +51.0% ( 70.5%)    98.1%
 T-DIPOLE    0.0534        C  4 --  H 12          +44.0% ( 65.5%)    97.3%
 TRAVEL      0.1315        C  8 --  H 20           +2.1% ( 14.1%)    99.8%
 RED. MASS   0.4537        C  7 --  H 21           +1.0% ( 10.0%)    99.8%
 EFF. MASS   1.2888

 VIBRATION   49   49A       ATOM PAIR        ENERGY CONTRIBUTION    RADIAL
 FREQ.      3032.25        C  7 --  H 21          +91.2% ( 96.7%)   100.0%
 T-DIPOLE    0.3582        C  8 --  H 20           +4.8% ( 22.2%)    99.8%
 TRAVEL      0.1225        C  1 --  C  7           +1.3% ( 11.4%)    14.7%
 RED. MASS   0.8164        C  7 --  C  8           +1.2% ( 11.0%)    39.8%
 EFF. MASS   1.4814

 VIBRATION   50   50A       ATOM PAIR        ENERGY CONTRIBUTION    RADIAL
 FREQ.      3033.18        C  2 --  H 11          +24.7% ( 51.8%)    97.6%
 T-DIPOLE    0.1257        C  3 --  H 15          +22.1% ( 48.9%)    96.8%
 TRAVEL      0.1200        C  3 --  H 14          +21.7% ( 48.6%)    96.7%
 RED. MASS   0.2170        C  2 --  H 10          +17.4% ( 43.4%)    95.5%
 EFF. MASS   1.5450        C  8 --  H 20          +10.2% ( 33.2%)   100.0%

 VIBRATION   51   51A       ATOM PAIR        ENERGY CONTRIBUTION    RADIAL
 FREQ.      3036.02        C  8 --  H 20          +78.2% ( 90.0%)   100.0%
 T-DIPOLE    0.1619        C  7 --  H 21           +5.0% ( 22.9%)    99.7%
 TRAVEL      0.1199        C  3 --  H 15           +4.3% ( 21.2%)    96.8%
 RED. MASS   0.6202        C  3 --  H 14           +4.3% ( 21.2%)    96.8%
 EFF. MASS   1.5437

 VIBRATION   52   52A       ATOM PAIR        ENERGY CONTRIBUTION    RADIAL
 FREQ.      3047.22        C  2 --  H 11          +30.7% ( 57.5%)    97.9%
 T-DIPOLE    0.2239        C  3 --  H 15          +22.5% ( 49.2%)    97.1%
 TRAVEL      0.1203        C  3 --  H 14          +22.1% ( 48.7%)    97.0%
 RED. MASS   0.2611        C  2 --  H 10          +20.8% ( 47.3%)    95.7%
 EFF. MASS   1.5282

 VIBRATION   53   53A       ATOM PAIR        ENERGY CONTRIBUTION    RADIAL
 FREQ.      3081.24        C  5 --  H 18          +63.5% ( 82.2%)    98.7%
 T-DIPOLE    0.0078        C  5 --  H 17          +29.6% ( 56.1%)    92.6%
 TRAVEL      0.1207        C  5 --  H 16           +5.7% ( 24.6%)    58.7%
 RED. MASS   0.5217        C  4 --  C  5           +1.0% ( 10.2%)     0.0%
 EFF. MASS   1.5011

 VIBRATION   54   54A       ATOM PAIR        ENERGY CONTRIBUTION    RADIAL
 FREQ.      3086.05        C  5 --  H 16          +58.7% ( 79.0%)    98.3%
 T-DIPOLE    0.0099        C  5 --  H 17          +35.5% ( 61.4%)    94.3%
 TRAVEL      0.1205        C  5 --  H 18           +4.4% ( 21.8%)    50.1%
 RED. MASS   0.5005        C  4 --  C  5           +1.0% ( 10.3%)     0.0%
 EFF. MASS   1.5041

 VIBRATION   55   55A       ATOM PAIR        ENERGY CONTRIBUTION    RADIAL
 FREQ.      3104.90        C  2 --  H 10          +56.5% ( 74.6%)    98.1%
 T-DIPOLE    0.1195        C  2 --  H 11          +38.1% ( 61.3%)    95.5%
 TRAVEL      0.1300        C  3 --  H 15           +1.8% ( 13.3%)    97.5%
 RED. MASS   0.4670        C  3 --  H 14           +1.5% ( 12.1%)    96.3%
 EFF. MASS   1.2855

 VIBRATION   56   56A       ATOM PAIR        ENERGY CONTRIBUTION    RADIAL
 FREQ.      3107.93        C  3 --  H 14          +47.9% ( 68.6%)    97.3%
 T-DIPOLE    0.2594        C  3 --  H 15          +46.7% ( 67.8%)    97.1%
 TRAVEL      0.1300        C  2 --  H 10           +2.0% ( 13.9%)    98.3%
 RED. MASS   0.4528        C  2 --  H 11           +1.3% ( 11.4%)    95.8%
 EFF. MASS   1.2843

 VIBRATION   57   57A       ATOM PAIR        ENERGY CONTRIBUTION    RADIAL
 FREQ.      3183.13        C  5 --  H 16          +34.7% ( 56.7%)    97.4%
 T-DIPOLE    0.0265        C  5 --  H 17          +34.2% ( 56.3%)    97.3%
 TRAVEL      0.1366        C  5 --  H 18          +30.8% ( 53.4%)    96.7%
 RED. MASS   0.3278        C  4 --  C  5           +0.3% (  5.1%)    99.7%
 EFF. MASS   1.1361

 SYMMETRY NUMBER FOR POINT-GROUP C1  =  1


          SYSTEM IS A GROUND STATE


    NULL



          MOLECULE IS NOT LINEAR

          THERE ARE 57 GENUINE VIBRATIONS IN THIS SYSTEM
          THIS THERMODYNAMICS CALCULATION IS LIMITED TO
          MOLECULES WHICH HAVE NO INTERNAL ROTATIONS




                    CALCULATED THERMODYNAMIC PROPERTIES
                                          *
   TEMP. (K)   PARTITION FUNCTION   H.O.F.    ENTHALPY  HEAT CAPACITY ENTROPY
                                   KCAL/MOL   CAL/MOLE    CAL/K/MOL  CAL/K/MOL


 298.00  VIB.     0.1482D+04                  4344.6983    28.9836    29.0885
         ROT.     0.6521D+06                   888.2813     2.9808    29.5854
         INT.     0.9664D+09                  5232.9796    31.9644    58.6739
         TRA.     0.1338D+28                  1480.4688     4.9680    40.3614
         TOT.                      -28.140    6713.4485    36.9325    99.0353

 200.00  VIB.     0.1293D+03                  2022.6795    18.7974    19.7747
         ROT.     0.3585D+06                   596.1620     2.9808    28.3967
         INT.     0.4634D+08                  2618.8415    21.7782    48.1714
         TRA.     0.7356D+27                   993.6033     4.9680    38.3802
         TOT.                      -31.241    3612.4447    26.7462    86.5516

 210.00  VIB.     0.1666D+03                  2215.2099    19.7142    20.7139
         ROT.     0.3857D+06                   625.9700     2.9808    28.5421
         INT.     0.6425D+08                  2841.1799    22.6950    49.2560
         TRA.     0.7914D+27                  1043.2834     4.9680    38.6226
         TOT.                      -30.969    3884.4634    27.6631    87.8786

 220.00  VIB.     0.2143D+03                  2417.0743    20.6641    21.6528
         ROT.     0.4136D+06                   655.7781     2.9808    28.6808
         INT.     0.8864D+08                  3072.8524    23.6449    50.3336
         TRA.     0.8486D+27                  1092.9636     4.9680    38.8537
         TOT.                      -30.687    4165.8160    28.6129    89.1873

 230.00  VIB.     0.2753D+03                  2628.5996    21.6462    22.5929
         ROT.     0.4421D+06                   685.5862     2.9808    28.8133
         INT.     0.1217D+09                  3314.1859    24.6270    51.4062
         TRA.     0.9072D+27                  1142.6437     4.9680    39.0746
         TOT.                      -30.396    4456.8296    29.5950    90.4807

 240.00  VIB.     0.3534D+03                  2850.0997    22.6587    23.5354
         ROT.     0.4713D+06                   715.3943     2.9808    28.9402
         INT.     0.1665D+09                  3565.4941    25.6395    52.4756
         TRA.     0.9670D+27                  1192.3239     4.9680    39.2860
         TOT.                      -30.095    4757.8180    30.6075    91.7616

 250.00  VIB.     0.4531D+03                  3081.8675    23.6993    24.4814
         ROT.     0.5011D+06                   745.2024     2.9808    29.0618
         INT.     0.2270D+09                  3827.0699    26.6801    53.5432
         TRA.     0.1028D+28                  1242.0041     4.9680    39.4888
         TOT.                      -29.784    5069.0740    31.6481    93.0321

 260.00  VIB.     0.5805D+03                  3324.1689    24.7649    25.4316
         ROT.     0.5314D+06                   775.0105     2.9808    29.1787
         INT.     0.3085D+09                  4099.1794    27.7457    54.6103
         TRA.     0.1090D+28                  1291.6842     4.9680    39.6837
         TOT.                      -29.462    5390.8636    32.7137    94.2940

 270.00  VIB.     0.7433D+03                  3577.2387    25.8524    26.3866
         ROT.     0.5624D+06                   804.8186     2.9808    29.2912
         INT.     0.4180D+09                  4382.0574    28.8332    55.6778
         TRA.     0.1154D+28                  1341.3644     4.9680    39.8712
         TOT.                      -29.130    5723.4217    33.8012    95.5490

 280.00  VIB.     0.9513D+03                  3841.2780    26.9582    27.3467
         ROT.     0.5939D+06                   834.6267     2.9808    29.3996
         INT.     0.5650D+09                  4675.9048    29.9390    56.7463
         TRA.     0.1219D+28                  1391.0445     4.9680    40.0518
         TOT.                      -28.786    6066.9493    34.9071    96.7982

 290.00  VIB.     0.1217D+04                  4116.4526    28.0789    28.3122
         ROT.     0.6260D+06                   864.4348     2.9808    29.5042
         INT.     0.7619D+09                  4980.8874    31.0597    57.8164
         TRA.     0.1284D+28                  1440.7247     4.9680    40.2262
         TOT.                      -28.432    6421.6121    36.0277    98.0426

 300.00  VIB.     0.1557D+04                  4402.8926    29.2108    29.2832
         ROT.     0.6587D+06                   894.2429     2.9808    29.6053
         INT.     0.1025D+10                  5297.1356    32.1916    58.8885
         TRA.     0.1351D+28                  1490.4049     4.9680    40.3946
         TOT.                      -28.066    6787.5404    37.1596    99.2831

 310.00  VIB.     0.1991D+04                  4700.6937    30.3505    30.2596
         ROT.     0.6919D+06                   924.0510     2.9808    29.7030
         INT.     0.1378D+10                  5624.7448    33.3313    59.9626
         TRA.     0.1419D+28                  1540.0850     4.9680    40.5575
         TOT.                      -27.688    7164.8298    38.2993   100.5201

 320.00  VIB.     0.2547D+04                  5009.9178    31.4948    31.2412
         ROT.     0.7256D+06                   953.8591     2.9808    29.7977
         INT.     0.1848D+10                  5963.7769    34.4756    61.0389
         TRA.     0.1489D+28                  1589.7652     4.9680    40.7152
         TOT.                      -27.300    7553.5421    39.4436   101.7541

 330.00  VIB.     0.3259D+04                  5330.5951    32.6406    32.2279
         ROT.     0.7599D+06                   983.6672     2.9808    29.8894
         INT.     0.2476D+10                  6314.2623    35.6215    62.1173
         TRA.     0.1559D+28                  1639.4454     4.9680    40.8681
         TOT.                      -26.900    7953.7077    40.5895   102.9854

 340.00  VIB.     0.4169D+04                  5662.7264    33.7852    33.2193
         ROT.     0.7947D+06                  1013.4753     2.9808    29.9784
         INT.     0.3313D+10                  6676.2017    36.7660    63.1977
         TRA.     0.1630D+28                  1689.1255     4.9680    41.0164
         TOT.                      -26.488    8365.3272    41.7340   104.2141

 350.00  VIB.     0.5335D+04                  6006.2854    34.9258    34.2151
         ROT.     0.8300D+06                  1043.2834     2.9808    30.0648
         INT.     0.4428D+10                  7049.5688    37.9066    64.2799
         TRA.     0.1703D+28                  1738.8057     4.9680    41.1604
         TOT.                      -26.065    8788.3745    42.8746   105.4403

 360.00  VIB.     0.6829D+04                  6361.2212    36.0602    35.2149
         ROT.     0.8658D+06                  1073.0915     2.9808    30.1488
         INT.     0.5913D+10                  7434.3127    39.0410    65.3637
         TRA.     0.1776D+28                  1788.4859     4.9680    41.3004
         TOT.                      -25.630    9222.7986    44.0090   106.6641

 370.00  VIB.     0.8743D+04                  6727.4613    37.1863    36.2183
         ROT.     0.9021D+06                  1102.8996     2.9808    30.2304
         INT.     0.7888D+10                  7830.3609    40.1671    66.4488
         TRA.     0.1851D+28                  1838.1660     4.9680    41.4365
         TOT.                      -25.185    9668.5269    45.1351   107.8853

 380.00  VIB.     0.1120D+05                  7104.9134    38.3023    37.2249
         ROT.     0.9390D+06                  1132.7077     2.9808    30.3099
         INT.     0.1051D+11                  8237.6211    41.2831    67.5348
         TRA.     0.1926D+28                  1887.8462     4.9680    41.5690
         TOT.                      -24.728   10125.4673    46.2511   109.1038

 390.00  VIB.     0.1435D+05                  7493.4686    39.4067    38.2341
         ROT.     0.9763D+06                  1162.5158     2.9808    30.3874
         INT.     0.1401D+11                  8655.9844    42.3875    68.6214
         TRA.     0.2003D+28                  1937.5263     4.9680    41.6980
         TOT.                      -24.260   10593.5108    47.3555   110.3195

 400.00  VIB.     0.1839D+05                  7893.0034    40.4980    39.2456
         ROT.     0.1014D+07                  1192.3239     2.9808    30.4628
         INT.     0.1864D+11                  9085.3273    43.4788    69.7084
         TRA.     0.2081D+28                  1987.2065     4.9680    41.8238
         TOT.                      -23.781   11072.5338    48.4469   111.5322

   *: NOTE: HEATS OF FORMATION ARE RELATIVE TO THE
            ELEMENTS IN THEIR STANDARD STATE AT 298K
              (=  Standard Enthalpy of Formation).

            Hvib:  Zero-point energy is not included.
                   frequencies of less than zero cm-1 are not included.
            Hrot = (3/2)RT
            Htra = (3/2)RT + pV = (5/2)RT

            Heat capacity is Cp, not Cv

           For more information, see: HTTP://OpenMOPAC.net/Manual/thermochemistry.html


           FORCE CONSTANT IN CARTESIAN COORDINATES (Millidynes/A)

    ATOM   CHEMICAL       X               Y               Z
   NUMBER   SYMBOL  FORCE CONSTANT  FORCE CONSTANT  FORCE CONSTANT

      1       C        8.088285        8.038998        8.531194
      2       C        7.580878        7.979471        8.635378
      3       C        8.010139        7.953001        8.120718
      4       C        8.491838        8.297603        8.617414
      5       C        8.225291        8.244792        8.376729
      6       C       13.089085       13.057578        2.971699
      7       C        7.495057       12.123303        7.673732
      8       C        7.466074       11.990128        7.681413
      9       H        1.326504        1.170296        3.546126
     10       H        1.443204        1.480878        3.714650
     11       H        1.461392        1.463654        3.687430
     12       H        1.599694        3.437079        1.235467
     13       H        2.704893        2.354392        1.337350
     14       H        1.350649        1.464952        3.736250
     15       H        1.453263        1.455929        3.639932
     16       H        1.926601        1.632648        3.232141
     17       H        1.711543        3.709728        1.358212
     18       H        2.909695        2.571904        1.300614
     19       O        8.566566        8.947687        0.359651
     20       H        3.429919        1.682036        1.089796
     21       H        3.424323        1.679721        1.070148



 TOTAL CPU TIME:             2.59 SECONDS

 == MOPAC DONE ==
