 *******************************************************************************
 ** Site#: 14399           For non-commercial use only        Version 13.159M **
 *******************************************************************************
 ** Cite this work as: MOPAC2012, James J. P. Stewart, Stewart Computational  **
 ** Chemistry, Version 13.159M web: HTTP://OpenMOPAC.net  Days remaining:   6 **
 *******************************************************************************
 **                                                                           **
 **                                MOPAC2012                                  **
 **                                                                           **
 *******************************************************************************

                            PM3 CALCULATION RESULTS


 *******************************************************************************
 *  CALCULATION DONE:                                Mon Jun  2 11:08:04 2014  *
 *  PM3      - The PM3 Hamiltonian to be used
 *  PRECISE  - CRITERIA TO BE INCREASED BY 100 TIMES
 *  NOSYM    - POINT-GROUP SYMMETRY SET TO C1
 *  T=       - A TIME OF 172800.0 SECONDS REQUESTED
 *  DUMP=N   - RESTART FILE WRITTEN EVERY  7200.000 SECONDS
 *******************************************************************************
pm3  precise nosym
 InChI=1S/C10H16/c1-3-5-9-7-10(8-9)6-4-2/h3-4,6,9-10H,1,5,7-8H2,2H3

   ATOM   CHEMICAL          X               Y               Z
  NUMBER   SYMBOL      (ANGSTROMS)     (ANGSTROMS)     (ANGSTROMS)
 
     1       C          0.99020000  *   0.83790000  *  -1.00410000  *
     2       C         -1.07920000  *   0.86460000  *  -0.38350000  *
     3       C          0.22000000  *   1.34170000  *   0.25770000  *
     4       C         -0.34210000  *   0.36680000  *  -1.58280000  *
     5       C          2.00480000  *  -0.28210000  *  -0.74140000  *
     6       C         -3.74100000  *  -1.22000000  *   1.52010000  *
     7       C         -1.77450000  *  -0.21850000  *   0.40160000  *
     8       C          3.23300000  *   0.21500000  *  -0.03260000  *
     9       C         -3.06700000  *  -0.13490000  *   0.74000000  *
    10       C          4.24110000  *  -0.60530000  *   0.27050000  *
    11       H          1.42470000  *   1.67780000  *  -1.59780000  *
    12       H         -1.74060000  *   1.72780000  *  -0.63960000  *
    13       H          0.50310000  *   0.82560000  *   1.20610000  *
    14       H          0.26690000  *   2.45100000  *   0.36000000  *
    15       H         -0.40620000  *  -0.73370000  *  -1.76120000  *
    16       H         -0.61350000  *   0.92560000  *  -2.50940000  *
    17       H          1.53980000  *  -1.09840000  *  -0.13960000  *
    18       H          2.30790000  *  -0.71550000  *  -1.72270000  *
    19       H         -4.80850000  *  -0.95740000  *   1.69610000  *
    20       H         -3.24450000  *  -1.35110000  *   2.50830000  *
    21       H         -3.70400000  *  -2.18050000  *   0.95770000  *
    22       H         -1.19770000  *  -1.09520000  *   0.69970000  *
    23       H          3.31550000  *   1.26490000  *   0.24830000  *
    24       H         -3.65700000  *   0.73410000  *   0.45000000  *
    25       H          5.12070000  *  -0.22360000  *   0.78530000  *
    26       H          4.20790000  *  -1.66300000  *   0.01310000  *
 


          CARTESIAN COORDINATES 

    NO.       ATOM         X         Y         Z

     1         C        0.9902    0.8379   -1.0041
     2         C       -1.0792    0.8646   -0.3835
     3         C        0.2200    1.3417    0.2577
     4         C       -0.3421    0.3668   -1.5828
     5         C        2.0048   -0.2821   -0.7414
     6         C       -3.7410   -1.2200    1.5201
     7         C       -1.7745   -0.2185    0.4016
     8         C        3.2330    0.2150   -0.0326
     9         C       -3.0670   -0.1349    0.7400
    10         C        4.2411   -0.6053    0.2705
    11         H        1.4247    1.6778   -1.5978
    12         H       -1.7406    1.7278   -0.6396
    13         H        0.5031    0.8256    1.2061
    14         H        0.2669    2.4510    0.3600
    15         H       -0.4062   -0.7337   -1.7612
    16         H       -0.6135    0.9256   -2.5094
    17         H        1.5398   -1.0984   -0.1396
    18         H        2.3079   -0.7155   -1.7227
    19         H       -4.8085   -0.9574    1.6961
    20         H       -3.2445   -1.3511    2.5083
    21         H       -3.7040   -2.1805    0.9577
    22         H       -1.1977   -1.0952    0.6997
    23         H        3.3155    1.2649    0.2483
    24         H       -3.6570    0.7341    0.4500
    25         H        5.1207   -0.2236    0.7853
    26         H        4.2079   -1.6630    0.0131

  H: (PM3): J. J. P. STEWART, J. COMP. CHEM. 10, 209 (1989).
  C: (PM3): J. J. P. STEWART, J. COMP. CHEM. 10, 209 (1989).

           Empirical Formula: C10 H16  =    26 atoms



      MOLECULAR POINT GROUP   :   C1  


      RHF CALCULATION, NO. OF DOUBLY OCCUPIED LEVELS =   28

      Geometry optimization using EF

          DIAGONAL MATRIX USED AS START HESSIAN

 CYCLE:     1 TIME:   0.017 TIME LEFT:  2.00D  GRAD.:   104.456 HEAT: 23.89610
 CYCLE:     2 TIME:   0.017 TIME LEFT:  2.00D  GRAD.:   102.209 HEAT: 23.05792
 CYCLE:     3 TIME:   0.009 TIME LEFT:  2.00D  GRAD.:    69.886 HEAT: 21.06213
 CYCLE:     4 TIME:   0.016 TIME LEFT:  2.00D  GRAD.:    46.104 HEAT: 19.91242
 CYCLE:     5 TIME:   0.016 TIME LEFT:  2.00D  GRAD.:    35.193 HEAT: 19.48246
 CYCLE:     6 TIME:   0.016 TIME LEFT:  2.00D  GRAD.:    27.095 HEAT: 19.27398
 CYCLE:     7 TIME:   0.009 TIME LEFT:  2.00D  GRAD.:    25.516 HEAT: 19.11431
 CYCLE:     8 TIME:   0.009 TIME LEFT:  2.00D  GRAD.:    28.297 HEAT: 19.07868
 CYCLE:     9 TIME:   0.009 TIME LEFT:  2.00D  GRAD.:    29.561 HEAT: 19.01398
 CYCLE:    10 TIME:   0.016 TIME LEFT:  2.00D  GRAD.:    17.974 HEAT: 18.86840
 CYCLE:    11 TIME:   0.009 TIME LEFT:  2.00D  GRAD.:    18.900 HEAT: 18.86764
 CYCLE:    12 TIME:   0.016 TIME LEFT:  2.00D  GRAD.:     7.425 HEAT: 18.78993
 CYCLE:    13 TIME:   0.016 TIME LEFT:  2.00D  GRAD.:     4.625 HEAT: 18.77305
 CYCLE:    14 TIME:   0.009 TIME LEFT:  2.00D  GRAD.:     2.931 HEAT: 18.75877
 CYCLE:    15 TIME:   0.009 TIME LEFT:  2.00D  GRAD.:     4.581 HEAT: 18.74897
 CYCLE:    16 TIME:   0.009 TIME LEFT:  2.00D  GRAD.:     6.199 HEAT: 18.74300
 CYCLE:    17 TIME:   0.009 TIME LEFT:  2.00D  GRAD.:     5.668 HEAT: 18.73891
 CYCLE:    18 TIME:   0.008 TIME LEFT:  2.00D  GRAD.:     5.347 HEAT: 18.73668
 CYCLE:    19 TIME:   0.009 TIME LEFT:  2.00D  GRAD.:     4.429 HEAT: 18.73286
 CYCLE:    20 TIME:   0.015 TIME LEFT:  2.00D  GRAD.:     2.167 HEAT: 18.72685
 CYCLE:    21 TIME:   0.009 TIME LEFT:  2.00D  GRAD.:     6.810 HEAT: 18.73677
 CYCLE:    22 TIME:   0.009 TIME LEFT:  2.00D  GRAD.:     3.227 HEAT: 18.72607
 CYCLE:    23 TIME:   0.009 TIME LEFT:  2.00D  GRAD.:     6.117 HEAT: 18.73410
 CYCLE:    24 TIME:   0.008 TIME LEFT:  2.00D  GRAD.:     1.717 HEAT: 18.72243
 CYCLE:    25 TIME:   0.009 TIME LEFT:  2.00D  GRAD.:     3.769 HEAT: 18.72494
 CYCLE:    26 TIME:   0.008 TIME LEFT:  2.00D  GRAD.:     1.267 HEAT: 18.72035
 CYCLE:    27 TIME:   0.009 TIME LEFT:  2.00D  GRAD.:     2.005 HEAT: 18.72034
 CYCLE:    28 TIME:   0.008 TIME LEFT:  2.00D  GRAD.:     0.726 HEAT: 18.71837
 CYCLE:    29 TIME:   0.009 TIME LEFT:  2.00D  GRAD.:     1.405 HEAT: 18.71743
 CYCLE:    30 TIME:   0.009 TIME LEFT:  2.00D  GRAD.:     1.434 HEAT: 18.71635
 CYCLE:    31 TIME:   0.008 TIME LEFT:  2.00D  GRAD.:     1.882 HEAT: 18.71640
 CYCLE:    32 TIME:   0.008 TIME LEFT:  2.00D  GRAD.:     0.637 HEAT: 18.71521
 CYCLE:    33 TIME:   0.009 TIME LEFT:  2.00D  GRAD.:     0.892 HEAT: 18.71499
 CYCLE:    34 TIME:   0.009 TIME LEFT:  2.00D  GRAD.:     0.675 HEAT: 18.71445
 CYCLE:    35 TIME:   0.009 TIME LEFT:  2.00D  GRAD.:     1.130 HEAT: 18.71366
 CYCLE:    36 TIME:   0.009 TIME LEFT:  2.00D  GRAD.:     0.773 HEAT: 18.71290
 CYCLE:    37 TIME:   0.009 TIME LEFT:  2.00D  GRAD.:     0.687 HEAT: 18.71236
 CYCLE:    38 TIME:   0.009 TIME LEFT:  2.00D  GRAD.:     0.616 HEAT: 18.71170
 CYCLE:    39 TIME:   0.009 TIME LEFT:  2.00D  GRAD.:     0.636 HEAT: 18.71100
 CYCLE:    40 TIME:   0.009 TIME LEFT:  2.00D  GRAD.:     0.493 HEAT: 18.71063
 CYCLE:    41 TIME:   0.008 TIME LEFT:  2.00D  GRAD.:     0.346 HEAT: 18.71039
 CYCLE:    42 TIME:   0.009 TIME LEFT:  2.00D  GRAD.:     0.483 HEAT: 18.71003
 CYCLE:    43 TIME:   0.009 TIME LEFT:  2.00D  GRAD.:     0.524 HEAT: 18.70973
 CYCLE:    44 TIME:   0.009 TIME LEFT:  2.00D  GRAD.:     0.426 HEAT: 18.70943
 CYCLE:    45 TIME:   0.009 TIME LEFT:  2.00D  GRAD.:     0.316 HEAT: 18.70922
 CYCLE:    46 TIME:   0.009 TIME LEFT:  2.00D  GRAD.:     0.364 HEAT: 18.70905
 CYCLE:    47 TIME:   0.009 TIME LEFT:  2.00D  GRAD.:     0.392 HEAT: 18.70886
 CYCLE:    48 TIME:   0.009 TIME LEFT:  2.00D  GRAD.:     0.312 HEAT: 18.70866
 CYCLE:    49 TIME:   0.009 TIME LEFT:  2.00D  GRAD.:     0.286 HEAT: 18.70843
 CYCLE:    50 TIME:   0.009 TIME LEFT:  2.00D  GRAD.:     0.386 HEAT: 18.70820
 CYCLE:    51 TIME:   0.009 TIME LEFT:  2.00D  GRAD.:     0.502 HEAT: 18.70784
 CYCLE:    52 TIME:   0.009 TIME LEFT:  2.00D  GRAD.:     0.543 HEAT: 18.70728
 CYCLE:    53 TIME:   0.009 TIME LEFT:  2.00D  GRAD.:     0.453 HEAT: 18.70682
 CYCLE:    54 TIME:   0.009 TIME LEFT:  2.00D  GRAD.:     0.501 HEAT: 18.70602
 CYCLE:    55 TIME:   0.009 TIME LEFT:  2.00D  GRAD.:     0.548 HEAT: 18.70556
 CYCLE:    56 TIME:   0.013 TIME LEFT:  2.00D  GRAD.:     0.509 HEAT: 18.70489
 CYCLE:    57 TIME:   0.009 TIME LEFT:  2.00D  GRAD.:     0.423 HEAT: 18.70448
 CYCLE:    58 TIME:   0.009 TIME LEFT:  2.00D  GRAD.:     0.689 HEAT: 18.70357
 CYCLE:    59 TIME:   0.008 TIME LEFT:  2.00D  GRAD.:     0.440 HEAT: 18.70326
 CYCLE:    60 TIME:   0.009 TIME LEFT:  2.00D  GRAD.:     0.592 HEAT: 18.70279
 CYCLE:    61 TIME:   0.009 TIME LEFT:  2.00D  GRAD.:     0.320 HEAT: 18.70259
 CYCLE:    62 TIME:   0.009 TIME LEFT:  2.00D  GRAD.:     0.229 HEAT: 18.70242
 CYCLE:    63 TIME:   0.009 TIME LEFT:  2.00D  GRAD.:     0.348 HEAT: 18.70220
 CYCLE:    64 TIME:   0.009 TIME LEFT:  2.00D  GRAD.:     0.460 HEAT: 18.70186
 CYCLE:    65 TIME:   0.009 TIME LEFT:  2.00D  GRAD.:     0.479 HEAT: 18.70131
 CYCLE:    66 TIME:   0.009 TIME LEFT:  2.00D  GRAD.:     0.437 HEAT: 18.70064
 CYCLE:    67 TIME:   0.009 TIME LEFT:  2.00D  GRAD.:     0.421 HEAT: 18.70001
 CYCLE:    68 TIME:   0.009 TIME LEFT:  2.00D  GRAD.:     0.489 HEAT: 18.69928
 CYCLE:    69 TIME:   0.009 TIME LEFT:  2.00D  GRAD.:     0.577 HEAT: 18.69866
 CYCLE:    70 TIME:   0.009 TIME LEFT:  2.00D  GRAD.:     0.844 HEAT: 18.69720
 CYCLE:    71 TIME:   0.009 TIME LEFT:  2.00D  GRAD.:     0.920 HEAT: 18.69582
 CYCLE:    72 TIME:   0.009 TIME LEFT:  2.00D  GRAD.:     2.398 HEAT: 18.69205
 CYCLE:    73 TIME:   0.009 TIME LEFT:  2.00D  GRAD.:     1.488 HEAT: 18.68952
 CYCLE:    74 TIME:   0.009 TIME LEFT:  2.00D  GRAD.:     1.121 HEAT: 18.68528
 CYCLE:    75 TIME:   0.009 TIME LEFT:  2.00D  GRAD.:     2.996 HEAT: 18.67556
 CYCLE:    76 TIME:   0.009 TIME LEFT:  2.00D  GRAD.:     2.242 HEAT: 18.66891
 CYCLE:    77 TIME:   0.009 TIME LEFT:  2.00D  GRAD.:     4.785 HEAT: 18.65848
 CYCLE:    78 TIME:   0.009 TIME LEFT:  2.00D  GRAD.:     3.343 HEAT: 18.64086
 CYCLE:    79 TIME:   0.009 TIME LEFT:  2.00D  GRAD.:     3.941 HEAT: 18.61442
 CYCLE:    80 TIME:   0.009 TIME LEFT:  2.00D  GRAD.:    10.185 HEAT: 18.59874
 CYCLE:    81 TIME:   0.009 TIME LEFT:  2.00D  GRAD.:     8.346 HEAT: 18.59082
 CYCLE:    82 TIME:   0.009 TIME LEFT:  2.00D  GRAD.:     2.986 HEAT: 18.53637
 CYCLE:    83 TIME:   0.009 TIME LEFT:  2.00D  GRAD.:     4.992 HEAT: 18.50336
 CYCLE:    84 TIME:   0.009 TIME LEFT:  2.00D  GRAD.:     9.676 HEAT: 18.47230
 CYCLE:    85 TIME:   0.009 TIME LEFT:  2.00D  GRAD.:     5.309 HEAT: 18.38688
 CYCLE:    86 TIME:   0.009 TIME LEFT:  2.00D  GRAD.:     5.806 HEAT: 18.33779
 CYCLE:    87 TIME:   0.009 TIME LEFT:  2.00D  GRAD.:     4.826 HEAT: 18.30500
 CYCLE:    88 TIME:   0.009 TIME LEFT:  2.00D  GRAD.:     6.384 HEAT: 18.27957
 CYCLE:    89 TIME:   0.009 TIME LEFT:  2.00D  GRAD.:     6.738 HEAT: 18.26570
 CYCLE:    90 TIME:   0.009 TIME LEFT:  2.00D  GRAD.:     3.524 HEAT: 18.23653
 CYCLE:    91 TIME:   0.009 TIME LEFT:  2.00D  GRAD.:     2.823 HEAT: 18.22139
 CYCLE:    92 TIME:   0.009 TIME LEFT:  2.00D  GRAD.:     3.611 HEAT: 18.18669
 CYCLE:    93 TIME:   0.009 TIME LEFT:  2.00D  GRAD.:     3.624 HEAT: 18.17177
 CYCLE:    94 TIME:   0.009 TIME LEFT:  2.00D  GRAD.:     3.043 HEAT: 18.14825
 CYCLE:    95 TIME:   0.009 TIME LEFT:  2.00D  GRAD.:     3.125 HEAT: 18.12917
 CYCLE:    96 TIME:   0.009 TIME LEFT:  2.00D  GRAD.:     3.408 HEAT: 18.11283
 CYCLE:    97 TIME:   0.009 TIME LEFT:  2.00D  GRAD.:     2.819 HEAT: 18.09878
 CYCLE:    98 TIME:   0.009 TIME LEFT:  2.00D  GRAD.:     2.654 HEAT: 18.08011
 CYCLE:    99 TIME:   0.009 TIME LEFT:  2.00D  GRAD.:     3.013 HEAT: 18.05937
 CYCLE:   100 TIME:   0.009 TIME LEFT:  2.00D  GRAD.:     3.638 HEAT: 18.05159
 CYCLE:   101 TIME:   0.009 TIME LEFT:  2.00D  GRAD.:     3.406 HEAT: 18.04074
 CYCLE:   102 TIME:   0.009 TIME LEFT:  2.00D  GRAD.:     1.709 HEAT: 18.03296
 CYCLE:   103 TIME:   0.009 TIME LEFT:  2.00D  GRAD.:     1.115 HEAT: 18.02823
 CYCLE:   104 TIME:   0.009 TIME LEFT:  2.00D  GRAD.:     1.155 HEAT: 18.02477
 CYCLE:   105 TIME:   0.009 TIME LEFT:  2.00D  GRAD.:     1.557 HEAT: 18.02175
 CYCLE:   106 TIME:   0.009 TIME LEFT:  2.00D  GRAD.:     1.681 HEAT: 18.01748
 CYCLE:   107 TIME:   0.009 TIME LEFT:  2.00D  GRAD.:     2.244 HEAT: 18.00896
 CYCLE:   108 TIME:   0.009 TIME LEFT:  2.00D  GRAD.:     2.059 HEAT: 18.00263
 CYCLE:   109 TIME:   0.009 TIME LEFT:  2.00D  GRAD.:     2.379 HEAT: 17.98919
 CYCLE:   110 TIME:   0.009 TIME LEFT:  2.00D  GRAD.:     3.079 HEAT: 17.97685
 CYCLE:   111 TIME:   0.009 TIME LEFT:  2.00D  GRAD.:     3.413 HEAT: 17.95441
 CYCLE:   112 TIME:   0.009 TIME LEFT:  2.00D  GRAD.:     5.499 HEAT: 17.93652
 CYCLE:   113 TIME:   0.009 TIME LEFT:  2.00D  GRAD.:     6.252 HEAT: 17.93014
 CYCLE:   114 TIME:   0.009 TIME LEFT:  2.00D  GRAD.:     4.243 HEAT: 17.90002
 CYCLE:   115 TIME:   0.009 TIME LEFT:  2.00D  GRAD.:     2.730 HEAT: 17.88534
 CYCLE:   116 TIME:   0.009 TIME LEFT:  2.00D  GRAD.:     4.353 HEAT: 17.87004
 CYCLE:   117 TIME:   0.009 TIME LEFT:  2.00D  GRAD.:     3.483 HEAT: 17.84976
 CYCLE:   118 TIME:   0.009 TIME LEFT:  2.00D  GRAD.:     4.287 HEAT: 17.83517
 CYCLE:   119 TIME:   0.009 TIME LEFT:  2.00D  GRAD.:     3.615 HEAT: 17.81772
 CYCLE:   120 TIME:   0.009 TIME LEFT:  2.00D  GRAD.:     6.290 HEAT: 17.81556
 CYCLE:   121 TIME:   0.009 TIME LEFT:  2.00D  GRAD.:     4.481 HEAT: 17.79415
 CYCLE:   122 TIME:   0.009 TIME LEFT:  2.00D  GRAD.:     2.092 HEAT: 17.78431
 CYCLE:   123 TIME:   0.009 TIME LEFT:  2.00D  GRAD.:     2.388 HEAT: 17.77503
 CYCLE:   124 TIME:   0.009 TIME LEFT:  2.00D  GRAD.:     3.384 HEAT: 17.76600
 CYCLE:   125 TIME:   0.009 TIME LEFT:  2.00D  GRAD.:     2.418 HEAT: 17.75732
 CYCLE:   126 TIME:   0.009 TIME LEFT:  2.00D  GRAD.:     1.902 HEAT: 17.74767
 CYCLE:   127 TIME:   0.009 TIME LEFT:  2.00D  GRAD.:     4.201 HEAT: 17.73702
 CYCLE:   128 TIME:   0.009 TIME LEFT:  2.00D  GRAD.:     3.805 HEAT: 17.72274
 CYCLE:   129 TIME:   0.009 TIME LEFT:  2.00D  GRAD.:     2.314 HEAT: 17.71343
 CYCLE:   130 TIME:   0.009 TIME LEFT:  2.00D  GRAD.:     2.197 HEAT: 17.70661
 CYCLE:   131 TIME:   0.009 TIME LEFT:  2.00D  GRAD.:     3.111 HEAT: 17.70489
 CYCLE:   132 TIME:   0.009 TIME LEFT:  2.00D  GRAD.:     2.113 HEAT: 17.69875
 CYCLE:   133 TIME:   0.009 TIME LEFT:  2.00D  GRAD.:     1.055 HEAT: 17.69375
 CYCLE:   134 TIME:   0.009 TIME LEFT:  2.00D  GRAD.:     1.024 HEAT: 17.68952
 CYCLE:   135 TIME:   0.009 TIME LEFT:  2.00D  GRAD.:     0.813 HEAT: 17.68791
 CYCLE:   136 TIME:   0.009 TIME LEFT:  2.00D  GRAD.:     1.202 HEAT: 17.68689
 CYCLE:   137 TIME:   0.009 TIME LEFT:  2.00D  GRAD.:     1.230 HEAT: 17.68561
 CYCLE:   138 TIME:   0.009 TIME LEFT:  2.00D  GRAD.:     1.397 HEAT: 17.68374
 CYCLE:   139 TIME:   0.009 TIME LEFT:  2.00D  GRAD.:     1.149 HEAT: 17.68147
 CYCLE:   140 TIME:   0.009 TIME LEFT:  2.00D  GRAD.:     1.663 HEAT: 17.67973
 CYCLE:   141 TIME:   0.009 TIME LEFT:  2.00D  GRAD.:     1.272 HEAT: 17.67787
 CYCLE:   142 TIME:   0.009 TIME LEFT:  2.00D  GRAD.:     1.288 HEAT: 17.67458
 CYCLE:   143 TIME:   0.009 TIME LEFT:  2.00D  GRAD.:     1.167 HEAT: 17.67161
 CYCLE:   144 TIME:   0.009 TIME LEFT:  2.00D  GRAD.:     1.687 HEAT: 17.66406
 CYCLE:   145 TIME:   0.009 TIME LEFT:  2.00D  GRAD.:     1.583 HEAT: 17.66049
 CYCLE:   146 TIME:   0.009 TIME LEFT:  2.00D  GRAD.:     1.439 HEAT: 17.65646
 CYCLE:   147 TIME:   0.009 TIME LEFT:  2.00D  GRAD.:     1.078 HEAT: 17.65381
 CYCLE:   148 TIME:   0.009 TIME LEFT:  2.00D  GRAD.:     0.723 HEAT: 17.65199
 CYCLE:   149 TIME:   0.009 TIME LEFT:  2.00D  GRAD.:     0.494 HEAT: 17.65108
 CYCLE:   150 TIME:   0.009 TIME LEFT:  2.00D  GRAD.:     0.557 HEAT: 17.65064
 CYCLE:   151 TIME:   0.009 TIME LEFT:  2.00D  GRAD.:     0.535 HEAT: 17.65040
 CYCLE:   152 TIME:   0.009 TIME LEFT:  2.00D  GRAD.:     0.756 HEAT: 17.65008
 CYCLE:   153 TIME:   0.009 TIME LEFT:  2.00D  GRAD.:     0.571 HEAT: 17.64977
 CYCLE:   154 TIME:   0.009 TIME LEFT:  2.00D  GRAD.:     0.421 HEAT: 17.64946
 CYCLE:   155 TIME:   0.009 TIME LEFT:  2.00D  GRAD.:     0.451 HEAT: 17.64896
 CYCLE:   156 TIME:   0.009 TIME LEFT:  2.00D  GRAD.:     0.534 HEAT: 17.64855
 CYCLE:   157 TIME:   0.009 TIME LEFT:  2.00D  GRAD.:     0.888 HEAT: 17.64738
 CYCLE:   158 TIME:   0.009 TIME LEFT:  2.00D  GRAD.:     0.847 HEAT: 17.64676
 CYCLE:   159 TIME:   0.009 TIME LEFT:  2.00D  GRAD.:     0.935 HEAT: 17.64456
 CYCLE:   160 TIME:   0.009 TIME LEFT:  2.00D  GRAD.:     0.811 HEAT: 17.64369
 CYCLE:   161 TIME:   0.009 TIME LEFT:  2.00D  GRAD.:     1.125 HEAT: 17.64208
 CYCLE:   162 TIME:   0.009 TIME LEFT:  2.00D  GRAD.:     0.984 HEAT: 17.64085
 CYCLE:   163 TIME:   0.009 TIME LEFT:  2.00D  GRAD.:     0.727 HEAT: 17.64021
 CYCLE:   164 TIME:   0.009 TIME LEFT:  2.00D  GRAD.:     0.622 HEAT: 17.63887
 CYCLE:   165 TIME:   0.009 TIME LEFT:  2.00D  GRAD.:     0.540 HEAT: 17.63836
 CYCLE:   166 TIME:   0.009 TIME LEFT:  2.00D  GRAD.:     0.502 HEAT: 17.63758
 CYCLE:   167 TIME:   0.009 TIME LEFT:  2.00D  GRAD.:     0.562 HEAT: 17.63686
 CYCLE:   168 TIME:   0.009 TIME LEFT:  2.00D  GRAD.:     0.667 HEAT: 17.63538
 CYCLE:   169 TIME:   0.009 TIME LEFT:  2.00D  GRAD.:     1.117 HEAT: 17.63404
 CYCLE:   170 TIME:   0.009 TIME LEFT:  2.00D  GRAD.:     0.947 HEAT: 17.63181
 CYCLE:   171 TIME:   0.009 TIME LEFT:  2.00D  GRAD.:     1.382 HEAT: 17.62912
 CYCLE:   172 TIME:   0.009 TIME LEFT:  2.00D  GRAD.:     0.752 HEAT: 17.62708
 CYCLE:   173 TIME:   0.009 TIME LEFT:  2.00D  GRAD.:     1.387 HEAT: 17.62592
 CYCLE:   174 TIME:   0.009 TIME LEFT:  2.00D  GRAD.:     0.772 HEAT: 17.62525
 CYCLE:   175 TIME:   0.009 TIME LEFT:  2.00D  GRAD.:     0.516 HEAT: 17.62472
 CYCLE:   176 TIME:   0.009 TIME LEFT:  2.00D  GRAD.:     0.484 HEAT: 17.62440
 CYCLE:   177 TIME:   0.009 TIME LEFT:  2.00D  GRAD.:     0.532 HEAT: 17.62379
 CYCLE:   178 TIME:   0.009 TIME LEFT:  2.00D  GRAD.:     0.375 HEAT: 17.62343
 CYCLE:   179 TIME:   0.009 TIME LEFT:  2.00D  GRAD.:     0.226 HEAT: 17.62319
 CYCLE:   180 TIME:   0.009 TIME LEFT:  2.00D  GRAD.:     0.184 HEAT: 17.62304
 CYCLE:   181 TIME:   0.009 TIME LEFT:  2.00D  GRAD.:     0.143 HEAT: 17.62299
 CYCLE:   182 TIME:   0.009 TIME LEFT:  2.00D  GRAD.:     0.102 HEAT: 17.62297
 CYCLE:   183 TIME:   0.008 TIME LEFT:  2.00D  GRAD.:     0.076 HEAT: 17.62297
 CYCLE:   184 TIME:   0.008 TIME LEFT:  2.00D  GRAD.:     0.067 HEAT: 17.62296
 CYCLE:   185 TIME:   0.009 TIME LEFT:  2.00D  GRAD.:     0.085 HEAT: 17.62295
 CYCLE:   186 TIME:   0.008 TIME LEFT:  2.00D  GRAD.:     0.074 HEAT: 17.62294
 CYCLE:   187 TIME:   0.008 TIME LEFT:  2.00D  GRAD.:     0.107 HEAT: 17.62291
 CYCLE:   188 TIME:   0.009 TIME LEFT:  2.00D  GRAD.:     0.224 HEAT: 17.62284
 CYCLE:   189 TIME:   0.009 TIME LEFT:  2.00D  GRAD.:     0.285 HEAT: 17.62270
 CYCLE:   190 TIME:   0.009 TIME LEFT:  2.00D  GRAD.:     0.347 HEAT: 17.62241
 CYCLE:   191 TIME:   0.009 TIME LEFT:  2.00D  GRAD.:     0.286 HEAT: 17.62223
 CYCLE:   192 TIME:   0.009 TIME LEFT:  2.00D  GRAD.:     0.300 HEAT: 17.62192
 CYCLE:   193 TIME:   0.009 TIME LEFT:  2.00D  GRAD.:     0.317 HEAT: 17.62171
 CYCLE:   194 TIME:   0.009 TIME LEFT:  2.00D  GRAD.:     0.610 HEAT: 17.62114
 CYCLE:   195 TIME:   0.010 TIME LEFT:  2.00D  GRAD.:     0.432 HEAT: 17.62072
 CYCLE:   196 TIME:   0.010 TIME LEFT:  2.00D  GRAD.:     1.000 HEAT: 17.62025
 CYCLE:   197 TIME:   0.009 TIME LEFT:  2.00D  GRAD.:     0.380 HEAT: 17.61966
 CYCLE:   198 TIME:   0.009 TIME LEFT:  2.00D  GRAD.:     0.218 HEAT: 17.61946
 CYCLE:   199 TIME:   0.009 TIME LEFT:  2.00D  GRAD.:     0.140 HEAT: 17.61931
 CYCLE:   200 TIME:   0.009 TIME LEFT:  2.00D  GRAD.:     0.128 HEAT: 17.61924
 CYCLE:   201 TIME:   0.009 TIME LEFT:  2.00D  GRAD.:     0.115 HEAT: 17.61920
 CYCLE:   202 TIME:   0.009 TIME LEFT:  2.00D  GRAD.:     0.089 HEAT: 17.61914
 CYCLE:   203 TIME:   0.009 TIME LEFT:  2.00D  GRAD.:     0.079 HEAT: 17.61912
 CYCLE:   204 TIME:   0.008 TIME LEFT:  2.00D  GRAD.:     0.067 HEAT: 17.61911
 CYCLE:   205 TIME:   0.009 TIME LEFT:  2.00D  GRAD.:     0.081 HEAT: 17.61911
 CYCLE:   206 TIME:   0.009 TIME LEFT:  2.00D  GRAD.:     0.029 HEAT: 17.61910

     RMS GRADIENT =  0.02873  IS LESS THAN CUTOFF =  0.05000



 -------------------------------------------------------------------------------
pm3  precise nosym
 InChI=1S/C10H16/c1-3-5-9-7-10(8-9)6-4-2/h3-4,6,9-10H,1,5,7-8H2,2H3



     GEOMETRY OPTIMISED USING EIGENVECTOR FOLLOWING (EF).     
     SCF FIELD WAS ACHIEVED                                   


                              PM3 CALCULATION
                                                       MOPAC2012 (Version: 13.159M)
                                                       Mon Jun  2 11:08:06 2014
                                                       No. of days left =   6




          FINAL HEAT OF FORMATION =         17.61910 KCAL/MOL =      73.71832 KJ/MOL


          TOTAL ENERGY            =      -1430.96298 EV
          ELECTRONIC ENERGY       =      -7937.55905 EV  POINT GROUP:     C1  
          CORE-CORE REPULSION     =       6506.59607 EV
          COSMO AREA              =        207.72 SQUARE ANGSTROMS
          COSMO VOLUME            =        208.18 CUBIC ANGSTROMS

          GRADIENT NORM           =          0.02873
          IONIZATION POTENTIAL    =          9.744922 EV
          HOMO LUMO ENERGIES (EV) =         -9.745  1.024
          NO. OF FILLED LEVELS    =         28
          MOLECULAR WEIGHT        =        136.236

          MOLECULAR DIMENSIONS (Angstroms)

            Atom       Atom       Distance
            H    19    H    25    10.20387
            H    16    H    20     4.72206
            H    14    H    26     4.02474


          SCF CALCULATIONS        =        215
          COMPUTATION TIME        =          1.911 SECONDS




   ATOM   CHEMICAL          X               Y               Z
  NUMBER   SYMBOL      (ANGSTROMS)     (ANGSTROMS)     (ANGSTROMS)
 
     1       C          1.04724560  *   0.71686707  *  -0.87027604  *
     2       C         -1.08016331  *   0.83936583  *  -0.33676972  *
     3       C          0.24929991  *   1.25520299  *   0.34235760  *
     4       C         -0.27837021  *   0.27953715  *  -1.53919460  *
     5       C          1.99846738  *  -0.42480810  *  -0.57112787  *
     6       C         -3.90714545  *  -1.08017158  *   1.44489935  *
     7       C         -1.84384263  *  -0.18956961  *   0.41080147  *
     8       C          3.21438103  *   0.05381587  *   0.14132057  *
     9       C         -3.13959050  *  -0.05811577  *   0.69978695  *
    10       C          4.44817575  *  -0.26525859  *  -0.23061683  *
    11       H          1.57961177  *   1.51370107  *  -1.43008601  *
    12       H         -1.72322300  *   1.70422360  *  -0.60490145  *
    13       H          0.46092379  *   0.74533159  *   1.29575627  *
    14       H          0.35385472  *   2.33549408  *   0.51906704  *
    15       H         -0.37868718  *  -0.80626844  *  -1.69482102  *
    16       H         -0.49283059  *   0.76945432  *  -2.49994957  *
    17       H          1.49717374  *  -1.18951792  *   0.05819942  *
    18       H          2.26149453  *  -0.93826043  *  -1.51791201  *
    19       H         -4.74683030  *  -1.44776997  *   0.83971795  *
    20       H         -4.32620901  *  -0.65145645  *   2.36523488  *
    21       H         -3.29942514  *  -1.94903322  *   1.73091396  *
    22       H         -1.27722554  *  -1.07872811  *   0.71861087  *
    23       H          3.03052801  *   0.69341951  *   1.01372830  *
    24       H         -3.70094228  *   0.83256355  *   0.39002708  *
    25       H          5.32798685  *   0.07875240  *   0.30428994  *
    26       H          4.66835785  *  -0.89117095  *  -1.09126968  *

           Empirical Formula: C10 H16  =    26 atoms



      MOLECULAR POINT GROUP   :   C1  


                  EIGENVALUES  
 -41.38655 -35.87766 -33.63225 -28.45741 -25.83913 -25.60079 -21.68156 -19.88918
 -19.46484 -18.50299 -17.16910 -16.67979 -15.89572 -15.37512 -14.85722 -14.33328
 -14.17764 -13.65422 -13.30751 -12.96834 -12.89870 -12.39578 -12.31771 -11.61001
 -11.44553 -11.31649 -10.14387  -9.74492   1.02376   1.16828   3.24118   3.28527
   3.43484   3.59416   3.66710   3.71863   3.86805   3.92297   3.94625   4.06023
   4.09108   4.20941   4.27259   4.35489   4.49422   4.49962   4.52800   4.54477
   4.65115   4.71163   5.22395   5.42043   5.64147   5.81314   5.88707   6.01468


              NET ATOMIC CHARGES AND DIPOLE CONTRIBUTIONS

  ATOM NO.   TYPE          CHARGE      No. of ELECS.   s-Pop       p-Pop       
    1          C          -0.090804        4.0908     1.19002     2.90078
    2          C          -0.057277        4.0573     1.17752     2.87975
    3          C          -0.108174        4.1082     1.17764     2.93053
    4          C          -0.107586        4.1076     1.17781     2.92978
    5          C          -0.061573        4.0616     1.14924     2.91234
    6          C          -0.074955        4.0750     1.12528     2.94967
    7          C          -0.146416        4.1464     1.19534     2.95108
    8          C          -0.137459        4.1375     1.19506     2.94239
    9          C          -0.141423        4.1414     1.19388     2.94755
   10          C          -0.167090        4.1671     1.18242     2.98467
   11          H           0.073941        0.9261     0.92606
   12          H           0.072832        0.9272     0.92717
   13          H           0.064627        0.9354     0.93537
   14          H           0.056235        0.9438     0.94376
   15          H           0.063471        0.9365     0.93653
   16          H           0.056337        0.9437     0.94366
   17          H           0.058895        0.9411     0.94111
   18          H           0.055604        0.9444     0.94440
   19          H           0.044083        0.9559     0.95592
   20          H           0.044112        0.9559     0.95589
   21          H           0.041077        0.9589     0.95892
   22          H           0.104029        0.8960     0.89597
   23          H           0.098706        0.9013     0.90129
   24          H           0.098438        0.9016     0.90156
   25          H           0.079043        0.9210     0.92096
   26          H           0.081328        0.9187     0.91867
 DIPOLE           X         Y         Z       TOTAL
 POINT-CHG.    -0.295    -0.068     0.041     0.305
 HYBRID        -0.002    -0.028     0.031     0.042
 SUM           -0.297    -0.096     0.072     0.320


          ATOMIC ORBITAL ELECTRON POPULATIONS

    Atom      s        px        py        pz   
    1  C   1.19002   0.94570   0.98022   0.97487
    2  C   1.17752   0.95084   0.97061   0.95831
    3  C   1.17764   0.95376   1.00549   0.97128
    4  C   1.17781   0.95444   1.01040   0.96494
    5  C   1.14924   0.94966   0.96610   0.99658
    6  C   1.12528   0.99130   0.97173   0.98665
    7  C   1.19534   0.95790   0.99063   1.00255
    8  C   1.19506   0.95293   0.99610   0.99336
    9  C   1.19388   0.95956   0.99161   0.99638
   10  C   1.18242   0.96249   1.01234   1.00984
   11  H   0.92606
   12  H   0.92717
   13  H   0.93537
   14  H   0.94376
   15  H   0.93653
   16  H   0.94366
   17  H   0.94111
   18  H   0.94440
   19  H   0.95592
   20  H   0.95589
   21  H   0.95892
   22  H   0.89597
   23  H   0.90129
   24  H   0.90156
   25  H   0.92096
   26  H   0.91867
 *******************************************************************************
 ** Site#: 14399           For non-commercial use only        Version 13.159M **
 *******************************************************************************
 ** Cite this work as: MOPAC2012, James J. P. Stewart, Stewart Computational  **
 ** Chemistry, Version 13.159M web: HTTP://OpenMOPAC.net  Days remaining:   6 **
 *******************************************************************************
 **                                                                           **
 **                                MOPAC2012                                  **
 **                                                                           **
 *******************************************************************************

                            PM3 CALCULATION RESULTS


 *******************************************************************************
 *  CALCULATION DONE:                                Mon Jun  2 11:08:06 2014  *
 *  PM3      - The PM3 Hamiltonian to be used
 *  OLDGEO   - PREVIOUS GEOMETRY TO BE USED
 *  PRECISE  - CRITERIA TO BE INCREASED BY 100 TIMES
 *  NOSYM    - POINT-GROUP SYMMETRY SET TO C1
 *  T=       - A TIME OF 172800.0 SECONDS REQUESTED
 *  DUMP=N   - RESTART FILE WRITTEN EVERY  7200.000 SECONDS
 *  THERMO   - THERMODYNAMIC QUANTITIES TO BE CALCULATED
 *******************************************************************************
oldgeo thermo nosym precise  pm3

   ATOM   CHEMICAL          X               Y               Z
  NUMBER   SYMBOL      (ANGSTROMS)     (ANGSTROMS)     (ANGSTROMS)
 
     1       C          1.04724560  *   0.71686707  *  -0.87027604  *
     2       C         -1.08016331  *   0.83936583  *  -0.33676972  *
     3       C          0.24929991  *   1.25520299  *   0.34235760  *
     4       C         -0.27837021  *   0.27953715  *  -1.53919460  *
     5       C          1.99846738  *  -0.42480810  *  -0.57112787  *
     6       C         -3.90714545  *  -1.08017158  *   1.44489935  *
     7       C         -1.84384263  *  -0.18956961  *   0.41080147  *
     8       C          3.21438103  *   0.05381587  *   0.14132057  *
     9       C         -3.13959050  *  -0.05811577  *   0.69978695  *
    10       C          4.44817575  *  -0.26525859  *  -0.23061683  *
    11       H          1.57961177  *   1.51370107  *  -1.43008601  *
    12       H         -1.72322300  *   1.70422360  *  -0.60490145  *
    13       H          0.46092379  *   0.74533159  *   1.29575627  *
    14       H          0.35385472  *   2.33549408  *   0.51906704  *
    15       H         -0.37868718  *  -0.80626844  *  -1.69482102  *
    16       H         -0.49283059  *   0.76945432  *  -2.49994957  *
    17       H          1.49717374  *  -1.18951792  *   0.05819942  *
    18       H          2.26149453  *  -0.93826043  *  -1.51791201  *
    19       H         -4.74683030  *  -1.44776997  *   0.83971795  *
    20       H         -4.32620901  *  -0.65145645  *   2.36523488  *
    21       H         -3.29942514  *  -1.94903322  *   1.73091396  *
    22       H         -1.27722554  *  -1.07872811  *   0.71861087  *
    23       H          3.03052801  *   0.69341951  *   1.01372830  *
    24       H         -3.70094228  *   0.83256355  *   0.39002708  *
    25       H          5.32798685  *   0.07875240  *   0.30428994  *
    26       H          4.66835785  *  -0.89117095  *  -1.09126968  *
 


          CARTESIAN COORDINATES 

    NO.       ATOM         X         Y         Z

     1         C        1.0472    0.7169   -0.8703
     2         C       -1.0802    0.8394   -0.3368
     3         C        0.2493    1.2552    0.3424
     4         C       -0.2784    0.2795   -1.5392
     5         C        1.9985   -0.4248   -0.5711
     6         C       -3.9071   -1.0802    1.4449
     7         C       -1.8438   -0.1896    0.4108
     8         C        3.2144    0.0538    0.1413
     9         C       -3.1396   -0.0581    0.6998
    10         C        4.4482   -0.2653   -0.2306
    11         H        1.5796    1.5137   -1.4301
    12         H       -1.7232    1.7042   -0.6049
    13         H        0.4609    0.7453    1.2958
    14         H        0.3539    2.3355    0.5191
    15         H       -0.3787   -0.8063   -1.6948
    16         H       -0.4928    0.7695   -2.4999
    17         H        1.4972   -1.1895    0.0582
    18         H        2.2615   -0.9383   -1.5179
    19         H       -4.7468   -1.4478    0.8397
    20         H       -4.3262   -0.6515    2.3652
    21         H       -3.2994   -1.9490    1.7309
    22         H       -1.2772   -1.0787    0.7186
    23         H        3.0305    0.6934    1.0137
    24         H       -3.7009    0.8326    0.3900
    25         H        5.3280    0.0788    0.3043
    26         H        4.6684   -0.8912   -1.0913

  H: (PM3): J. J. P. STEWART, J. COMP. CHEM. 10, 209 (1989).
  C: (PM3): J. J. P. STEWART, J. COMP. CHEM. 10, 209 (1989).

           Empirical Formula: C10 H16  =    26 atoms



      MOLECULAR POINT GROUP   :   C1  


      RHF CALCULATION, NO. OF DOUBLY OCCUPIED LEVELS =   28



          HEAT OF FORMATION =      17.619100 KCALS/MOLE


          INTERNAL COORDINATE DERIVATIVES

   NUMBER  ATOM       BOND         ANGLE      DIHEDRAL

     1       C     -0.000799    -0.000648    -0.001931
     2       C      0.002252    -0.001756     0.000339
     3       C      0.003184    -0.003290    -0.000719
     4       C     -0.002212     0.001278    -0.001731
     5       C     -0.003222     0.002244     0.005610
     6       C      0.000661     0.001837     0.005899
     7       C     -0.004077    -0.005260     0.001527
     8       C     -0.003688     0.001949    -0.001617
     9       C      0.009923     0.001646    -0.003604
    10       C     -0.007290     0.000825    -0.003734
    11       H     -0.001775    -0.000082    -0.002384
    12       H     -0.000388     0.000981     0.002023
    13       H     -0.002093     0.003119     0.001076
    14       H     -0.002081     0.000068    -0.000255
    15       H      0.000954     0.001038     0.000556
    16       H      0.001049     0.000190     0.001094
    17       H      0.005274    -0.000101    -0.000694
    18       H      0.001755    -0.004408     0.000991
    19       H      0.003618    -0.005795    -0.000639
    20       H     -0.001254     0.001609    -0.000874
    21       H     -0.003780     0.002665    -0.005539
    22       H     -0.003984     0.000957    -0.005477
    23       H      0.004352     0.001354    -0.000928
    24       H      0.001670    -0.000188     0.006446
    25       H      0.001192     0.000989     0.002583
    26       H      0.000758    -0.001222     0.001982


          GRADIENT NORM =   0.02646


          TIME FOR SCF CALCULATION =    0.01

          TIME FOR DERIVATIVES     =    0.01

          MOLECULAR WEIGHT =  136.24



          ROTATIONAL CONSTANTS IN CM(-1)

          A =    0.11073505   B =    0.01679997   C =    0.01603461



           PRINCIPAL MOMENTS OF INERTIA IN UNITS OF 10**(-40)*GRAM-CM**2

          A =      252.7905   B =     1666.2394   C =     1745.7725


          ORIENTATION OF MOLECULE IN FORCE CALCULATION

    NO.       ATOM         X         Y         Z

     1          C      -1.1258   -0.2068    0.8607
     2          C       1.0709   -0.2068    0.8607
     3          C      -0.0285    0.8854    0.8607
     4          C      -0.0289   -1.2986    0.8367
     5          C      -2.0381   -0.2159   -0.3499
     6          C       4.1343   -0.1872   -1.4772
     7          C       1.9346   -0.1938   -0.3454
     8          C      -3.0159    0.9051   -0.3015
     9          C       3.2670   -0.2002   -0.2786
    10          C      -4.3189    0.7426   -0.4969
    11          H      -1.7329   -0.2146    1.7897
    12          H       1.6768   -0.2171    1.7914
    13          H      -0.0304    1.5398   -0.0256
    14          H      -0.0266    1.5358    1.7474
    15          H      -0.0301   -1.9321   -0.0644
    16          H      -0.0272   -1.9689    1.7084
    17          H      -1.4424   -0.1263   -1.2822
    18          H      -2.5514   -1.1966   -0.4127
    19          H       4.7801   -1.0756   -1.4945
    20          H       4.7876    0.6957   -1.4699
    21          H       3.5668   -0.1717   -2.4172
    22          H       1.4111   -0.1783   -1.3108
    23          H      -2.5903    1.8957   -0.0975
    24          H       3.7851   -0.2155    0.6887
    25          H      -5.0219    1.5695   -0.4724
    26          H      -4.7761   -0.2230   -0.6958


    FIRST DERIVATIVES WILL BE USED IN THE CALCULATION OF SECOND DERIVATIVES

          ESTIMATED TIME TO COMPLETE CALCULATION =        3.90 SECONDS

    FOR POINT-GROUP C1   THERE ARE   1 UNIQUE SYMMETRY FUNCTIONS.

 STEP:   1 TIME =     0.04 SECS, INTEGRAL =      0.04 TIME LEFT: 172799.95
 STEP:   2 TIME =     0.04 SECS, INTEGRAL =      0.08 TIME LEFT: 172799.91
 STEP:   3 TIME =     0.04 SECS, INTEGRAL =      0.12 TIME LEFT: 172799.87
 STEP:   4 TIME =     0.04 SECS, INTEGRAL =      0.16 TIME LEFT: 172799.83
 STEP:   5 TIME =     0.04 SECS, INTEGRAL =      0.20 TIME LEFT: 172799.79
 STEP:   6 TIME =     0.04 SECS, INTEGRAL =      0.24 TIME LEFT: 172799.75
 STEP:   7 TIME =     0.04 SECS, INTEGRAL =      0.28 TIME LEFT: 172799.71
 STEP:   8 TIME =     0.04 SECS, INTEGRAL =      0.32 TIME LEFT: 172799.67
 STEP:   9 TIME =     0.04 SECS, INTEGRAL =      0.35 TIME LEFT: 172799.63
 STEP:  10 TIME =     0.04 SECS, INTEGRAL =      0.39 TIME LEFT: 172799.59
 STEP:  11 TIME =     0.04 SECS, INTEGRAL =      0.43 TIME LEFT: 172799.55
 STEP:  12 TIME =     0.04 SECS, INTEGRAL =      0.47 TIME LEFT: 172799.52
 STEP:  13 TIME =     0.04 SECS, INTEGRAL =      0.51 TIME LEFT: 172799.48
 STEP:  14 TIME =     0.04 SECS, INTEGRAL =      0.55 TIME LEFT: 172799.44
 STEP:  15 TIME =     0.04 SECS, INTEGRAL =      0.59 TIME LEFT: 172799.40
 STEP:  16 TIME =     0.04 SECS, INTEGRAL =      0.63 TIME LEFT: 172799.36
 STEP:  17 TIME =     0.04 SECS, INTEGRAL =      0.66 TIME LEFT: 172799.32
 STEP:  18 TIME =     0.04 SECS, INTEGRAL =      0.70 TIME LEFT: 172799.29
 STEP:  19 TIME =     0.04 SECS, INTEGRAL =      0.74 TIME LEFT: 172799.25
 STEP:  20 TIME =     0.04 SECS, INTEGRAL =      0.78 TIME LEFT: 172799.21
 STEP:  21 TIME =     0.04 SECS, INTEGRAL =      0.82 TIME LEFT: 172799.17
 STEP:  22 TIME =     0.04 SECS, INTEGRAL =      0.86 TIME LEFT: 172799.13
 STEP:  23 TIME =     0.04 SECS, INTEGRAL =      0.90 TIME LEFT: 172799.09
 STEP:  24 TIME =     0.04 SECS, INTEGRAL =      0.94 TIME LEFT: 172799.05
 STEP:  25 TIME =     0.04 SECS, INTEGRAL =      0.98 TIME LEFT: 172799.01
 STEP:  26 TIME =     0.04 SECS, INTEGRAL =      1.02 TIME LEFT: 172798.97
 STEP:  27 TIME =     0.04 SECS, INTEGRAL =      1.06 TIME LEFT: 172798.93
 STEP:  28 TIME =     0.04 SECS, INTEGRAL =      1.10 TIME LEFT: 172798.89
 STEP:  29 TIME =     0.04 SECS, INTEGRAL =      1.13 TIME LEFT: 172798.85
 STEP:  30 TIME =     0.04 SECS, INTEGRAL =      1.17 TIME LEFT: 172798.81
 STEP:  31 TIME =     0.04 SECS, INTEGRAL =      1.21 TIME LEFT: 172798.77
 STEP:  32 TIME =     0.04 SECS, INTEGRAL =      1.25 TIME LEFT: 172798.73
 STEP:  33 TIME =     0.04 SECS, INTEGRAL =      1.29 TIME LEFT: 172798.69
 STEP:  34 TIME =     0.04 SECS, INTEGRAL =      1.33 TIME LEFT: 172798.66
 STEP:  35 TIME =     0.04 SECS, INTEGRAL =      1.37 TIME LEFT: 172798.62
 STEP:  36 TIME =     0.04 SECS, INTEGRAL =      1.41 TIME LEFT: 172798.58
 STEP:  37 TIME =     0.04 SECS, INTEGRAL =      1.45 TIME LEFT: 172798.54
 STEP:  38 TIME =     0.04 SECS, INTEGRAL =      1.49 TIME LEFT: 172798.50
 STEP:  39 TIME =     0.04 SECS, INTEGRAL =      1.53 TIME LEFT: 172798.46
 STEP:  40 TIME =     0.04 SECS, INTEGRAL =      1.57 TIME LEFT: 172798.42
 STEP:  41 TIME =     0.04 SECS, INTEGRAL =      1.61 TIME LEFT: 172798.38
 STEP:  42 TIME =     0.04 SECS, INTEGRAL =      1.65 TIME LEFT: 172798.34
 STEP:  43 TIME =     0.04 SECS, INTEGRAL =      1.69 TIME LEFT: 172798.30
 STEP:  44 TIME =     0.04 SECS, INTEGRAL =      1.72 TIME LEFT: 172798.26
 STEP:  45 TIME =     0.04 SECS, INTEGRAL =      1.76 TIME LEFT: 172798.23
 STEP:  46 TIME =     0.04 SECS, INTEGRAL =      1.80 TIME LEFT: 172798.19
 STEP:  47 TIME =     0.04 SECS, INTEGRAL =      1.84 TIME LEFT: 172798.15
 STEP:  48 TIME =     0.04 SECS, INTEGRAL =      1.88 TIME LEFT: 172798.11
 STEP:  49 TIME =     0.04 SECS, INTEGRAL =      1.92 TIME LEFT: 172798.07
 STEP:  50 TIME =     0.04 SECS, INTEGRAL =      1.96 TIME LEFT: 172798.03
 STEP:  51 TIME =     0.04 SECS, INTEGRAL =      2.00 TIME LEFT: 172797.99
 STEP:  52 TIME =     0.04 SECS, INTEGRAL =      2.04 TIME LEFT: 172797.95
 STEP:  53 TIME =     0.04 SECS, INTEGRAL =      2.08 TIME LEFT: 172797.91
 STEP:  54 TIME =     0.04 SECS, INTEGRAL =      2.12 TIME LEFT: 172797.87
 STEP:  55 TIME =     0.04 SECS, INTEGRAL =      2.16 TIME LEFT: 172797.83
 STEP:  56 TIME =     0.04 SECS, INTEGRAL =      2.20 TIME LEFT: 172797.79
 STEP:  57 TIME =     0.04 SECS, INTEGRAL =      2.24 TIME LEFT: 172797.75
 STEP:  58 TIME =     0.04 SECS, INTEGRAL =      2.27 TIME LEFT: 172797.71
 STEP:  59 TIME =     0.04 SECS, INTEGRAL =      2.31 TIME LEFT: 172797.67
 STEP:  60 TIME =     0.04 SECS, INTEGRAL =      2.35 TIME LEFT: 172797.63
 STEP:  61 TIME =     0.04 SECS, INTEGRAL =      2.39 TIME LEFT: 172797.60
 STEP:  62 TIME =     0.04 SECS, INTEGRAL =      2.43 TIME LEFT: 172797.56
 STEP:  63 TIME =     0.04 SECS, INTEGRAL =      2.47 TIME LEFT: 172797.52
 STEP:  64 TIME =     0.04 SECS, INTEGRAL =      2.51 TIME LEFT: 172797.48
 STEP:  65 TIME =     0.04 SECS, INTEGRAL =      2.55 TIME LEFT: 172797.44
 STEP:  66 TIME =     0.04 SECS, INTEGRAL =      2.59 TIME LEFT: 172797.40
 STEP:  67 TIME =     0.04 SECS, INTEGRAL =      2.63 TIME LEFT: 172797.36
 STEP:  68 TIME =     0.04 SECS, INTEGRAL =      2.67 TIME LEFT: 172797.32
 STEP:  69 TIME =     0.04 SECS, INTEGRAL =      2.71 TIME LEFT: 172797.28
 STEP:  70 TIME =     0.04 SECS, INTEGRAL =      2.75 TIME LEFT: 172797.24
 STEP:  71 TIME =     0.05 SECS, INTEGRAL =      2.80 TIME LEFT: 172797.19
 STEP:  72 TIME =     0.04 SECS, INTEGRAL =      2.84 TIME LEFT: 172797.15
 STEP:  73 TIME =     0.04 SECS, INTEGRAL =      2.88 TIME LEFT: 172797.11
 STEP:  74 TIME =     0.04 SECS, INTEGRAL =      2.91 TIME LEFT: 172797.07
 STEP:  75 TIME =     0.04 SECS, INTEGRAL =      2.96 TIME LEFT: 172797.03
 STEP:  76 TIME =     0.04 SECS, INTEGRAL =      3.00 TIME LEFT: 172796.99
 STEP:  77 TIME =     0.04 SECS, INTEGRAL =      3.03 TIME LEFT: 172796.95
 STEP:  78 TIME =     0.04 SECS, INTEGRAL =      3.08 TIME LEFT: 172796.91

(To convert to Hartree/Bohr^2, multiply by (10^(-21) x N x a0^2)/(4.184 x 627.51) = 0.0642)


           FORCE MATRIX IN MILLIDYNES/ANGSTROM


                  C  1       C  2       C  3       C  4       C  5       C  6
 ------------------------------------------------------------------------------
     C    1  14.524438
     C    2   1.796632  14.918224
     C    3   3.459197   3.394402  14.290059
     C    4   3.473975   3.391213   1.827589  14.307375
     C    5   4.260163   0.040539   0.538484   0.549551  14.788490
     C    6   0.001913   0.145173   0.019123   0.019322   0.000563  14.714859
     C    7   0.042834   5.064650   0.597155   0.596451   0.007087   0.848036
     C    8   0.696125   0.004715   0.037114   0.051259   4.960071   0.001017
     C    9   0.003394   0.846856   0.033047   0.032644   0.001029   5.266886
     C   10   0.044308   0.001030   0.002621   0.008073   0.833966   0.000920
     H   11   4.449021   0.027860   0.428429   0.427243   0.428590   0.000318
     H   12   0.027946   4.420584   0.426393   0.426367   0.002097   0.002099
     H   13   0.452442   0.452521   4.651941   0.027862   0.025432   0.001209
     H   14   0.440577   0.444349   4.720012   0.030880   0.033701   0.002549
     H   15   0.452212   0.452667   0.027761   4.659651   0.031551   0.001162
     H   16   0.441755   0.444212   0.030973   4.722031   0.033197   0.002538
     H   17   0.457204   0.002584   0.023387   0.019785   4.385370   0.000263
     H   18   0.430923   0.003236   0.046412   0.019359   4.437704   0.000246
     H   19   0.000376   0.019737   0.002344   0.003265   0.000247   4.705440
     H   20   0.000399   0.019865   0.003277   0.002164   0.000193   4.705525
     H   21   0.000328   0.002227   0.000652   0.000670   0.000323   4.724513
     H   22   0.002243   0.434487   0.018314   0.018102   0.004035   0.082856
     H   23   0.025351   0.000891   0.007222   0.002099   0.432801   0.000229
     H   24   0.000766   0.085832   0.008120   0.008127   0.000375   0.423730
     H   25   0.017496   0.000215   0.000632   0.002600   0.138018   0.000328
     H   26   0.010241   0.000523   0.000445   0.001806   0.097550   0.000356


                  C  7       C  8       C  9       C 10       H 11       H 12
 ------------------------------------------------------------------------------
     C    7  18.327822
     C    8   0.001127  18.203912
     C    9  10.665174   0.000985  18.181306
     C   10   0.001180  11.089086   0.000550  18.046952
     H   11   0.003637   0.025670   0.000813   0.002407   4.944284
     H   12   0.445305   0.000751   0.055258   0.000346   0.002502   4.915538
     H   13   0.030733   0.009100   0.003170   0.001401   0.030432   0.030046
     H   14   0.032079   0.001932   0.003299   0.000971   0.027136   0.027177
     H   15   0.030996   0.002845   0.003188   0.000924   0.030722   0.030083
     H   16   0.031931   0.006540   0.003484   0.001402   0.026711   0.027105
     H   17   0.003500   0.410934   0.000826   0.033145   0.043184   0.000530
     H   18   0.001358   0.460517   0.000255   0.046358   0.024834   0.000635
     H   19   0.035681   0.000232   0.438569   0.000250   0.000156   0.000447
     H   20   0.035769   0.000244   0.438715   0.000360   0.000085   0.000417
     H   21   0.041893   0.000240   0.478576   0.000281   0.000132   0.000583
     H   22   4.742688   0.001553   0.467895   0.000667   0.000897   0.036535
     H   23   0.001115   4.776782   0.000302   0.454003   0.003236   0.000457
     H   24   0.470463   0.000394   4.770921   0.000302   0.000134   0.029850
     H   25   0.000286   0.462285   0.000388   5.107807   0.000644   0.000117
     H   26   0.000451   0.491091   0.000252   5.071003   0.000622   0.000113


                  H 13       H 14       H 15       H 16       H 17       H 18
 ------------------------------------------------------------------------------
     H   13   5.285437
     H   14   0.550038   5.336911
     H   15   0.002789   0.000980   5.291638
     H   16   0.001034   0.003369   0.548870   5.338050
     H   17   0.023103   0.001717   0.015739   0.001309   4.979921
     H   18   0.003371   0.005701   0.011853   0.001815   0.559094   5.040384
     H   19   0.000196   0.000183   0.000277   0.000602   0.000106   0.000078
     H   20   0.000331   0.000540   0.000130   0.000273   0.000104   0.000074
     H   21   0.000199   0.000177   0.000249   0.000125   0.000173   0.000098
     H   22   0.017536   0.001399   0.017145   0.001374   0.009084   0.000545
     H   23   0.012374   0.001123   0.000672   0.000458   0.017473   0.039175
     H   24   0.000795   0.001214   0.000717   0.001384   0.000251   0.000107
     H   25   0.000283   0.000156   0.000179   0.000478   0.017988   0.003061
     H   26   0.000224   0.000278   0.000275   0.000391   0.012015   0.028626


                  H 19       H 20       H 21       H 22       H 23       H 24
 ------------------------------------------------------------------------------
     H   19   5.425172
     H   20   0.574954   5.425397
     H   21   0.565075   0.565311   5.450955
     H   22   0.009372   0.009394   0.029449   5.121250
     H   23   0.000123   0.000094   0.000104   0.000544   5.148667
     H   24   0.023865   0.023972   0.040789   0.105140   0.000165   5.149288
     H   25   0.000059   0.000094   0.000118   0.000178   0.080427   0.000114
     H   26   0.000112   0.000147   0.000145   0.000169   0.119053   0.000213


                  H 25       H 26
 ------------------------------
     H   25   5.496677
     H   26   0.423030   5.467193


          HEAT OF FORMATION =      17.619100 KCALS/MOLE

          ZERO POINT ENERGY     145.101 KCAL/MOL


           NORMAL COORDINATE ANALYSIS (Total motion = 1 Angstrom)


   Root No.       1         2         3         4         5         6         7         8

                 1 A       2 A       3 A       4 A       5 A       6 A       7 A       8 A   

                  39.8      61.8      79.6      86.8     138.1     171.6     221.2     236.4
  
           1   -0.0004    0.0015   -0.0025   -0.0058    0.0008   -0.0010    0.0026   -0.0033
           2    0.0082    0.0017    0.0122   -0.0206    0.0112   -0.0148   -0.0075   -0.0089
           3   -0.0204   -0.0009   -0.0138   -0.0036    0.0024   -0.0065   -0.0264   -0.0049
           4   -0.0006    0.0016   -0.0026   -0.0061    0.0010   -0.0014    0.0030   -0.0078
           5    0.0086    0.0190   -0.0126    0.0153   -0.0112    0.0072    0.0067    0.0095
           6   -0.0195    0.0080    0.0110   -0.0004   -0.0004    0.0019    0.0244   -0.0134
           7   -0.0007   -0.0069    0.0095   -0.0235    0.0116   -0.0112   -0.0047   -0.0137
           8    0.0085    0.0102    0.0000   -0.0029    0.0002   -0.0042   -0.0002    0.0013
           9   -0.0320    0.0275    0.0093   -0.0035   -0.0134    0.0111   -0.0293   -0.0148
          10   -0.0003    0.0100   -0.0147    0.0116   -0.0097    0.0087    0.0089    0.0027
          11    0.0086    0.0105   -0.0003   -0.0029   -0.0001   -0.0041   -0.0005   -0.0011
          12   -0.0298   -0.0081    0.0085   -0.0017    0.0142   -0.0128    0.0063    0.0280
          13   -0.0170    0.0160    0.0259   -0.0061   -0.0011    0.0041   -0.0022    0.0187
          14    0.0075    0.0131    0.0223   -0.0326    0.0010    0.0010   -0.0061   -0.0007
          15   -0.0076   -0.0120   -0.0357   -0.0035    0.0039   -0.0103   -0.0232   -0.0208
          16    0.0382   -0.0104   -0.0132   -0.0026    0.0012   -0.0033   -0.0282    0.0104
          17   -0.0176   -0.0243    0.0050   -0.0009    0.0218   -0.0416    0.0056    0.0049
          18    0.0319   -0.0084   -0.0030    0.0043    0.0001   -0.0007   -0.0178    0.0174
          19    0.0179   -0.0036   -0.0064   -0.0043    0.0009   -0.0012    0.0166   -0.0221
          20    0.0053    0.0373   -0.0194    0.0249   -0.0193    0.0058   -0.0034   -0.0035
          21   -0.0061    0.0044    0.0082    0.0010   -0.0005    0.0022    0.0365   -0.0246
          22   -0.0265   -0.0041    0.0088    0.0274   -0.0027    0.0028   -0.0025    0.0153
          23   -0.0017   -0.0050    0.0072   -0.0020   -0.0001   -0.0008   -0.0064   -0.0054
          24    0.0161    0.0006   -0.0305   -0.0314   -0.0060    0.0119    0.0177    0.0250
          25    0.0168   -0.0036   -0.0061   -0.0045    0.0010   -0.0010    0.0170   -0.0230
          26   -0.0115   -0.0319    0.0082   -0.0037   -0.0019    0.0598   -0.0083   -0.0075
          27    0.0164   -0.0035    0.0022    0.0029   -0.0004    0.0021    0.0165   -0.0090
          28   -0.0296   -0.0005    0.0019    0.0145   -0.0029    0.0037   -0.0027    0.0174
          29   -0.0137   -0.0262   -0.0235    0.0265   -0.0055    0.0048    0.0137    0.0047
          30    0.0470   -0.0058    0.0420    0.0326   -0.0003    0.0020    0.0047    0.0078
          31    0.0113   -0.0088   -0.0239   -0.0062    0.0024   -0.0054   -0.0011   -0.0185
          32    0.0086   -0.0182    0.0184   -0.0294    0.0297   -0.0328   -0.0003   -0.0013
          33   -0.0126   -0.0079   -0.0278   -0.0038    0.0036   -0.0094   -0.0281   -0.0149
          34   -0.0135    0.0049   -0.0013   -0.0076    0.0012   -0.0024   -0.0167    0.0061
          35    0.0098    0.0093   -0.0199    0.0262   -0.0074    0.0056    0.0259    0.0333
          36   -0.0109    0.0056    0.0099    0.0007   -0.0005    0.0024    0.0364   -0.0217
          37   -0.0007   -0.0088    0.0268   -0.0325    0.0169   -0.0133    0.0122   -0.0218
          38   -0.0023    0.0308    0.0099   -0.0044   -0.0119    0.0067   -0.0256   -0.0014
          39   -0.0400    0.0427    0.0167   -0.0048   -0.0224    0.0193   -0.0486   -0.0171
          40   -0.0011   -0.0155    0.0070   -0.0357    0.0194   -0.0211   -0.0309   -0.0156
          41    0.0194   -0.0102   -0.0100   -0.0012    0.0124   -0.0155    0.0264    0.0054
          42   -0.0400    0.0425    0.0166   -0.0047   -0.0224    0.0195   -0.0490   -0.0177
          43    0.0001    0.0189   -0.0119    0.0235   -0.0173    0.0177    0.0340    0.0041
          44    0.0180    0.0197   -0.0099   -0.0030   -0.0111    0.0041   -0.0055   -0.0357
          45   -0.0364   -0.0145    0.0153   -0.0016    0.0221   -0.0187    0.0100    0.0530
          46   -0.0006    0.0117   -0.0323    0.0215   -0.0155    0.0119   -0.0084    0.0117
          47   -0.0004    0.0017    0.0089   -0.0026    0.0108   -0.0125    0.0051    0.0335
          48   -0.0367   -0.0149    0.0157   -0.0015    0.0226   -0.0193    0.0106    0.0550
          49   -0.0318    0.0257    0.0452   -0.0041   -0.0025    0.0065   -0.0119    0.0284
          50    0.0191    0.0435    0.0483   -0.0753   -0.0075    0.0205    0.0123    0.0355
          51   -0.0158   -0.0030   -0.0208   -0.0062    0.0022   -0.0069   -0.0272   -0.0110
          52   -0.0091    0.0335    0.0412   -0.0331   -0.0005    0.0067    0.0009    0.0285
          53    0.0033    0.0057    0.0161   -0.0200   -0.0001    0.0011   -0.0064   -0.0028
          54   -0.0066   -0.0396   -0.0657    0.0251    0.0139   -0.0308   -0.0345   -0.0590
          55    0.0312   -0.0449    0.0048   -0.0220   -0.1370   -0.0889   -0.0227    0.0161
          56   -0.0229   -0.0487    0.0178   -0.0146   -0.0766   -0.1049    0.0106    0.0088
          57    0.0426   -0.0435    0.0089   -0.0108   -0.1153    0.0234   -0.0528    0.0297
          58    0.0454    0.0238   -0.0312    0.0166    0.1386    0.0817   -0.0350    0.0055
          59   -0.0230   -0.0498    0.0184   -0.0152   -0.0810   -0.1048    0.0107    0.0085
          60    0.0445    0.0185   -0.0224    0.0212    0.1128   -0.0288   -0.0374    0.0464
          61    0.0551   -0.0155   -0.0189   -0.0010    0.0022   -0.0048   -0.0659    0.0385
          62   -0.0120    0.0306   -0.0232    0.0285    0.2317   -0.0153    0.0099    0.0107
          63    0.0218   -0.0044    0.0000    0.0038    0.0029    0.0006    0.0045    0.0009
          64    0.0340   -0.0082   -0.0107   -0.0027    0.0009   -0.0018    0.0149   -0.0224
          65    0.0159    0.1051   -0.0459    0.0532   -0.0257   -0.0697   -0.0001   -0.0033
          66   -0.0146    0.0079    0.0100    0.0006   -0.0006    0.0012    0.0363   -0.0236
          67   -0.0309   -0.0226    0.0017    0.0645   -0.0040    0.0016    0.0010    0.0117
          68    0.0019   -0.0002    0.0213   -0.0027    0.0030   -0.0057   -0.0179   -0.0162
          69    0.0074    0.0158   -0.0849   -0.1046   -0.0189    0.0392    0.0681    0.0871
          70    0.0000    0.0014   -0.0009   -0.0063    0.0010    0.0004    0.0425   -0.0429
          71   -0.0218   -0.0991    0.0351   -0.0319   -0.0050    0.1527   -0.0162   -0.0133
          72    0.0252   -0.0073   -0.0002    0.0034   -0.0004    0.0028    0.0017    0.0024
          73   -0.0368   -0.0156   -0.0123    0.0406   -0.0050    0.0042    0.0049    0.0166
          74   -0.0204   -0.0394   -0.0359    0.0492   -0.0070    0.0046    0.0191    0.0026
          75    0.0650    0.0032    0.0502    0.0163   -0.0079    0.0202    0.0441    0.0549
          76   -0.0254    0.0177    0.0095   -0.0231   -0.0012    0.0042   -0.0103    0.0205
          77   -0.0177   -0.0319   -0.0387    0.0293   -0.0089    0.0101    0.0279    0.0162
          78    0.0566   -0.0204    0.0981    0.1059    0.0123   -0.0250   -0.0462   -0.0549


   Root No.       9        10        11        12        13        14        15        16

                 9 A      10 A      11 A      12 A      13 A      14 A      15 A      16 A   

                 349.5     392.2     414.8     434.4     479.1     505.3     617.2     776.2
  
           1    0.0053   -0.0189    0.0077    0.0274    0.0027   -0.0035   -0.0017   -0.0381
           2    0.0079   -0.0271    0.0066   -0.0219   -0.0037   -0.0003   -0.0038   -0.0014
           3    0.0113    0.0215   -0.0067   -0.0161    0.0305    0.0176    0.0249    0.0165
           4   -0.0129   -0.0095    0.0048    0.0209   -0.0014   -0.0027    0.0081    0.0386
           5   -0.0004    0.0017   -0.0389    0.0077    0.0000   -0.0006    0.0003    0.0004
           6   -0.0069   -0.0106    0.0041    0.0179   -0.0251    0.0363    0.0016    0.0119
           7    0.0011   -0.0319    0.0319    0.0125    0.0017   -0.0050    0.0025    0.0137
           8    0.0098   -0.0190   -0.0209   -0.0085   -0.0012    0.0007   -0.0082   -0.0319
           9   -0.0279   -0.0166   -0.0240   -0.0098   -0.0084   -0.0110    0.0007    0.0070
          10   -0.0085   -0.0009   -0.0169    0.0485    0.0056   -0.0054    0.0135    0.0021
          11    0.0003   -0.0148   -0.0229   -0.0124   -0.0039   -0.0006   -0.0022    0.0434
          12   -0.0357    0.0185    0.0220    0.0013   -0.0028   -0.0093    0.0018    0.0093
          13    0.0107   -0.0026   -0.0006   -0.0069    0.0281    0.0137    0.0015   -0.0240
          14    0.0011    0.0291    0.0016    0.0219    0.0074    0.0026    0.0074   -0.0174
          15    0.0174    0.0101   -0.0007    0.0077    0.0063    0.0038    0.0045   -0.0203
          16   -0.0306    0.0125   -0.0047   -0.0162   -0.0211    0.0260   -0.0033   -0.0069
          17   -0.0001   -0.0003   -0.0104    0.0015    0.0000    0.0000   -0.0002    0.0001
          18    0.0133   -0.0142    0.0051    0.0178    0.0077   -0.0096    0.0026    0.0073
          19   -0.0130    0.0202   -0.0072   -0.0241    0.0070   -0.0134   -0.0006    0.0032
          20   -0.0004    0.0063    0.0606   -0.0081    0.0008    0.0001   -0.0004    0.0002
          21    0.0013    0.0064   -0.0016   -0.0082   -0.0119    0.0204   -0.0041   -0.0237
          22    0.0297    0.0012   -0.0030   -0.0171   -0.0124   -0.0019   -0.0036    0.0024
          23    0.0120    0.0371    0.0005    0.0221   -0.0288   -0.0135    0.0139    0.0053
          24    0.0143   -0.0006   -0.0005   -0.0043   -0.0083   -0.0024   -0.0517    0.0051
          25   -0.0160    0.0227   -0.0084   -0.0281    0.0049   -0.0114   -0.0015    0.0014
          26   -0.0002    0.0016    0.0284   -0.0045    0.0000    0.0006   -0.0004    0.0003
          27    0.0203   -0.0019    0.0008    0.0016    0.0234   -0.0326    0.0017    0.0053
          28    0.0371    0.0073   -0.0033   -0.0163   -0.0194   -0.0043   -0.0131    0.0049
          29   -0.0241   -0.0134    0.0007    0.0011    0.0176    0.0057    0.0004    0.0013
          30    0.0024   -0.0035   -0.0004   -0.0064   -0.0024   -0.0005    0.0047    0.0011
          31    0.0258   -0.0177    0.0094    0.0420    0.0086    0.0040    0.0083   -0.0643
          32    0.0103   -0.0368    0.0457   -0.0413   -0.0067   -0.0007   -0.0107    0.0103
          33    0.0238    0.0211   -0.0050   -0.0063    0.0322    0.0212    0.0299   -0.0022
          34   -0.0277   -0.0175    0.0079    0.0320    0.0010   -0.0197    0.0133    0.0774
          35   -0.0072    0.0269   -0.0620    0.0309    0.0039   -0.0003    0.0066   -0.0059
          36    0.0023   -0.0047    0.0017    0.0103   -0.0255    0.0452   -0.0017   -0.0136
          37   -0.0034   -0.0583    0.0545    0.0198   -0.0254    0.0046   -0.0142    0.0218
          38   -0.0233   -0.0433   -0.0475   -0.0222   -0.0144   -0.0522   -0.0356   -0.0838
          39   -0.0536   -0.0356   -0.0455   -0.0208   -0.0190   -0.0523   -0.0205   -0.0324
          40    0.0122   -0.0266    0.0420   -0.0124    0.0316   -0.0162    0.0182    0.0245
          41    0.0451    0.0078    0.0097    0.0071    0.0144    0.0571    0.0197    0.0091
          42   -0.0546   -0.0368   -0.0471   -0.0215   -0.0203   -0.0539   -0.0206   -0.0262
          43   -0.0193   -0.0073   -0.0277    0.0805   -0.0196    0.0034    0.0064   -0.0010
          44    0.0419   -0.0297   -0.0509   -0.0134    0.0033    0.0517    0.0194    0.1096
          45   -0.0667    0.0301    0.0435    0.0022   -0.0083   -0.0482   -0.0140   -0.0393
          46   -0.0031    0.0236   -0.0372    0.0449    0.0375   -0.0169    0.0339    0.0105
          47   -0.0430    0.0024    0.0076   -0.0110   -0.0116   -0.0539   -0.0234   -0.0106
          48   -0.0699    0.0320    0.0463    0.0024   -0.0090   -0.0518   -0.0152   -0.0357
          49    0.0094    0.0209   -0.0086   -0.0230    0.0671    0.0365    0.0313   -0.0009
          50   -0.0200    0.0511   -0.0053    0.0283    0.0818    0.0396   -0.0671    0.0246
          51    0.0140    0.0263   -0.0062   -0.0022    0.0363    0.0205    0.0175   -0.0023
          52   -0.0014   -0.0129   -0.0013   -0.0143    0.0757    0.0368   -0.0296   -0.0221
          53    0.0058    0.0375    0.0011    0.0260   -0.0110   -0.0061    0.0203   -0.0137
          54    0.0313   -0.0379    0.0111    0.0046   -0.0660   -0.0352    0.0456   -0.0854
          55   -0.0317    0.0121   -0.0222   -0.0137   -0.0231    0.0285   -0.0033   -0.0098
          56   -0.0005   -0.0005   -0.0245    0.0034   -0.0006    0.0004    0.0000   -0.0013
          57    0.0047   -0.0211    0.0445    0.0233   -0.0120    0.0212    0.0012   -0.0022
          58   -0.0316    0.0135    0.0124   -0.0198   -0.0226    0.0286   -0.0041   -0.0084
          59    0.0004   -0.0010   -0.0235    0.0041    0.0007   -0.0015    0.0003    0.0007
          60    0.0043   -0.0251   -0.0278    0.0356   -0.0128    0.0207    0.0021   -0.0043
          61   -0.0434    0.0020   -0.0008   -0.0030   -0.0485    0.0674   -0.0052   -0.0239
          62   -0.0003   -0.0021   -0.0396    0.0065   -0.0004   -0.0001    0.0001   -0.0008
          63    0.0206   -0.0081    0.0023    0.0102    0.0233   -0.0330    0.0036    0.0169
          64   -0.0047    0.0298   -0.0110   -0.0402    0.0277   -0.0446   -0.0022   -0.0001
          65   -0.0007    0.0136    0.1584   -0.0241    0.0024    0.0006   -0.0025    0.0026
          66   -0.0035    0.0009    0.0022    0.0008   -0.0231    0.0367   -0.0033   -0.0215
          67    0.0222   -0.0153   -0.0036   -0.0262   -0.0117   -0.0011   -0.0267    0.0263
          68    0.0134    0.0492    0.0007    0.0346   -0.0225   -0.0113    0.0059   -0.0074
          69    0.0185   -0.0306   -0.0004   -0.0494   -0.0318   -0.0108    0.0340    0.0150
          70   -0.0199    0.0333   -0.0127   -0.0418    0.0009   -0.0058   -0.0045   -0.0141
          71    0.0003   -0.0044   -0.0361    0.0054   -0.0011    0.0002    0.0012   -0.0019
          72    0.0218   -0.0080    0.0023    0.0096    0.0246   -0.0343    0.0034    0.0135
          73    0.0079   -0.0300   -0.0031   -0.0273    0.0303    0.0171   -0.0535   -0.0161
          74   -0.0496   -0.0445    0.0009   -0.0065    0.0619    0.0247   -0.0414   -0.0167
          75   -0.0077   -0.0435    0.0002   -0.0625   -0.0200   -0.0074    0.2730   -0.0349
          76    0.0742    0.0504   -0.0038   -0.0049   -0.0774   -0.0285    0.0124    0.0339
          77   -0.0416   -0.0417    0.0010   -0.0154    0.0409    0.0157    0.0254   -0.0175
          78   -0.0007    0.0314   -0.0008    0.0461    0.0241    0.0095   -0.1769    0.0217


   Root No.      17        18        19        20        21        22        23        24

                17 A      18 A      19 A      20 A      21 A      22 A      23 A      24 A   

                 857.6     875.5     897.3     915.1     925.0     934.9     948.8     964.3
  
           1   -0.0005    0.0017   -0.0019    0.0008   -0.0005   -0.0139    0.0049   -0.0028
           2   -0.0009    0.0059   -0.0051   -0.0025    0.0001   -0.0014   -0.0019   -0.0104
           3    0.0000    0.0009   -0.0015    0.0143    0.0004    0.0024   -0.0063    0.0022
           4    0.0013    0.0073    0.0010   -0.0169   -0.0005    0.0042    0.0055   -0.0160
           5    0.0049   -0.0025   -0.0044   -0.0004   -0.0125    0.0011    0.0002    0.0039
           6    0.0005    0.0029    0.0004   -0.0090   -0.0005   -0.0046    0.0087   -0.0010
           7    0.0064   -0.0167    0.0008    0.0145   -0.0076    0.0075   -0.0059    0.0183
           8   -0.0077   -0.0113    0.0122    0.0201    0.0130   -0.0164    0.0036    0.0243
           9    0.0075    0.0134    0.0230    0.0102    0.0064   -0.0172   -0.0024    0.0103
          10   -0.0082   -0.0013    0.0006    0.0109    0.0089    0.0050   -0.0084    0.0023
          11   -0.0048    0.0029    0.0161   -0.0127    0.0131    0.0170   -0.0011   -0.0140
          12   -0.0064    0.0023   -0.0274    0.0033   -0.0065   -0.0144   -0.0020    0.0147
          13    0.0020    0.0281   -0.0068    0.0015   -0.0009   -0.0064   -0.0056   -0.0256
          14    0.0023    0.0240   -0.0025   -0.0150   -0.0011    0.0082   -0.0032    0.0033
          15   -0.0013   -0.0155    0.0052   -0.0249   -0.0003    0.0067    0.0177   -0.0080
          16   -0.0002    0.0013   -0.0005   -0.0014   -0.0003   -0.0129    0.0115    0.0132
          17   -0.0212    0.0024    0.0047    0.0003    0.0001    0.0001   -0.0001    0.0002
          18   -0.0001    0.0014    0.0002   -0.0029   -0.0001   -0.0009    0.0026   -0.0005
          19    0.0004    0.0015   -0.0001   -0.0011   -0.0002    0.0016   -0.0022   -0.0048
          20    0.0412   -0.0041   -0.0027    0.0007   -0.0481   -0.0003    0.0002   -0.0002
          21   -0.0007   -0.0116    0.0011    0.0123    0.0002    0.0194   -0.0149   -0.0034
          22    0.0002   -0.0012    0.0014   -0.0047    0.0000    0.0055    0.0033    0.0059
          23   -0.0012   -0.0034   -0.0023    0.0088   -0.0001    0.0007    0.0021    0.0044
          24    0.0004    0.0016    0.0009   -0.0129   -0.0004   -0.0109   -0.0212   -0.0004
          25    0.0001    0.0027   -0.0004   -0.0018   -0.0002   -0.0041    0.0019   -0.0002
          26   -0.0256    0.0024    0.0046    0.0006   -0.0156    0.0002   -0.0001   -0.0003
          27    0.0000    0.0029   -0.0004   -0.0018   -0.0004   -0.0065    0.0039    0.0034
          28    0.0002   -0.0023    0.0026   -0.0119   -0.0001    0.0082    0.0020    0.0129
          29   -0.0012   -0.0097   -0.0008    0.0175    0.0010   -0.0151    0.0025   -0.0258
          30    0.0000    0.0005   -0.0001   -0.0003    0.0000   -0.0044   -0.0095   -0.0036
          31   -0.0045   -0.0410    0.0065   -0.0053    0.0002    0.0022    0.0371    0.0026
          32   -0.0048   -0.0159   -0.0864   -0.0070   -0.0434   -0.0026   -0.0047   -0.0212
          33   -0.0026   -0.0267    0.0035    0.0073    0.0004    0.0131    0.0164    0.0036
          34    0.0027    0.0205    0.0000   -0.0277   -0.0010   -0.0105    0.0117   -0.0144
          35   -0.0338   -0.0025   -0.0851   -0.0175   -0.0351    0.0052   -0.0024    0.0005
          36   -0.0010   -0.0067    0.0002   -0.0008   -0.0003    0.0069    0.0032   -0.0017
          37    0.0146   -0.0395    0.0089   -0.0159   -0.0257   -0.0018    0.0400    0.0268
          38   -0.0442   -0.0701   -0.0799   -0.0064   -0.0123    0.0322    0.0129    0.0020
          39   -0.0215   -0.0325   -0.0489   -0.0106   -0.0134    0.0214    0.0047   -0.0073
          40    0.0045   -0.0293   -0.0041    0.0904    0.0002    0.0425   -0.0798    0.0606
          41    0.0287    0.0443    0.1024    0.0530    0.0398   -0.0735   -0.0036    0.0561
          42   -0.0208   -0.0299   -0.0479   -0.0147   -0.0149    0.0259    0.0035   -0.0135
          43   -0.0183   -0.0034    0.0035   -0.0239    0.0260   -0.0050    0.0312    0.0004
          44   -0.0351    0.0174   -0.0947   -0.0092   -0.0144   -0.0254   -0.0104    0.0201
          45    0.0166   -0.0082    0.0551    0.0000    0.0140    0.0178    0.0048   -0.0110
          46   -0.0091   -0.0156   -0.0011    0.0885    0.0074    0.0389   -0.0796    0.0433
          47    0.0255   -0.0084    0.1227   -0.0250    0.0410    0.0668    0.0062   -0.0565
          48    0.0180   -0.0073    0.0600   -0.0057    0.0167    0.0250    0.0044   -0.0183
          49   -0.0032   -0.0236   -0.0008    0.0157   -0.0001    0.0233    0.0362   -0.0387
          50   -0.0105   -0.1144    0.0228   -0.0528    0.0005   -0.0015    0.0309    0.0333
          51   -0.0057   -0.0585    0.0107   -0.0189    0.0003    0.0247    0.0464   -0.0132
          52   -0.0027   -0.0284    0.0050   -0.0127    0.0023   -0.0342    0.0120   -0.0778
          53    0.0035    0.0416   -0.0070   -0.0087   -0.0026    0.0238   -0.0085    0.0341
          54    0.0119    0.1274   -0.0202   -0.0183   -0.0028   -0.0120   -0.0263   -0.0647
          55    0.0790   -0.0079   -0.0164   -0.0014    0.0023   -0.0131    0.0110    0.0138
          56    0.0419   -0.0044   -0.0080   -0.0004    0.0023   -0.0015    0.0011    0.0016
          57   -0.1103   -0.0006    0.0243    0.0159   -0.0035    0.0566   -0.0507   -0.0475
          58   -0.0790    0.0092    0.0153    0.0008   -0.0029   -0.0129    0.0112    0.0151
          59    0.0396   -0.0038   -0.0075   -0.0012    0.0021    0.0000    0.0002   -0.0009
          60    0.1100   -0.0244   -0.0198    0.0127    0.0071    0.0563   -0.0508   -0.0494
          61   -0.0011   -0.0157    0.0018    0.0212    0.0019    0.0516   -0.0508   -0.0383
          62    0.0557   -0.0060   -0.0107   -0.0007    0.0045    0.0002   -0.0003   -0.0006
          63    0.0016    0.0108   -0.0014   -0.0158   -0.0013   -0.0373    0.0380    0.0286
          64    0.0003    0.0067   -0.0020    0.0046    0.0014   -0.0089   -0.0098   -0.0019
          65   -0.0947    0.0024   -0.0389   -0.0111    0.3600    0.0009    0.0005    0.0045
          66   -0.0028   -0.0142    0.0015    0.0089    0.0058    0.0253   -0.0110   -0.0052
          67   -0.0032   -0.0570    0.0139    0.0007    0.0018   -0.0334   -0.0099   -0.0197
          68   -0.0009    0.0054   -0.0017   -0.0269   -0.0015   -0.0025   -0.0242    0.0164
          69    0.0056    0.0754   -0.0276    0.1458    0.0026    0.0868    0.1351   -0.0043
          70    0.0002   -0.0065    0.0002    0.0124    0.0021    0.0254   -0.0289   -0.0208
          71    0.1904   -0.0229   -0.0640   -0.0097    0.2592    0.0003    0.0003    0.0024
          72    0.0033    0.0073   -0.0018   -0.0094    0.0027   -0.0216    0.0199    0.0139
          73    0.0068    0.0541    0.0034   -0.0859   -0.0043    0.0703   -0.0084    0.1072
          74    0.0047    0.0415   -0.0009   -0.0449   -0.0027    0.0381   -0.0080    0.0547
          75   -0.0035   -0.0417    0.0136   -0.0548   -0.0007    0.0184    0.0347    0.0303
          76   -0.0074   -0.0718    0.0048    0.0586    0.0049   -0.0711   -0.0062   -0.0950
          77    0.0019    0.0157    0.0017   -0.0384   -0.0019    0.0122   -0.0174    0.0278
          78    0.0034    0.0437   -0.0168    0.0970    0.0021    0.0536    0.1055   -0.0040


   Root No.      25        26        27        28        29        30        31        32

                25 A      26 A      27 A      28 A      29 A      30 A      31 A      32 A   

                 990.3    1010.4    1013.9    1022.3    1038.7    1044.5    1046.9    1076.8
  
           1    0.0103    0.0014    0.0036   -0.0014   -0.0127    0.0039   -0.0228    0.0101
           2   -0.0018    0.0187    0.0007    0.0037    0.0276    0.0068    0.0056    0.0122
           3   -0.0050   -0.0008   -0.0009    0.0000   -0.0001   -0.0006    0.0010    0.0013
           4    0.0025    0.0000    0.0026   -0.0015   -0.0140    0.0035   -0.0242    0.0198
           5    0.0008   -0.0158    0.0101   -0.0233   -0.0152    0.0192    0.0112    0.0023
           6   -0.0035   -0.0010   -0.0002   -0.0005   -0.0027    0.0009   -0.0046    0.0056
           7   -0.0044   -0.0185    0.0052   -0.0127   -0.0164    0.0062    0.0135   -0.0130
           8    0.0110   -0.0059   -0.0119    0.0132   -0.0070   -0.0156   -0.0128    0.0014
           9    0.0133    0.0009    0.0036   -0.0065    0.0070    0.0148    0.0097    0.0118
          10   -0.0071    0.0197   -0.0071    0.0140    0.0285   -0.0091    0.0065    0.0030
          11   -0.0099    0.0015   -0.0024    0.0118   -0.0093   -0.0163   -0.0077   -0.0187
          12    0.0140    0.0005   -0.0043    0.0076   -0.0017   -0.0130   -0.0092   -0.0141
          13   -0.0086   -0.0055   -0.0017   -0.0011   -0.0118   -0.0099    0.0084   -0.0059
          14   -0.0006    0.0030    0.0026   -0.0005    0.0012    0.0018    0.0018   -0.0123
          15    0.0041    0.0008    0.0009    0.0002    0.0047    0.0037   -0.0003   -0.0127
          16   -0.0239    0.0044    0.0039   -0.0003    0.0008   -0.0001    0.0021   -0.0035
          17    0.0002   -0.0030    0.0024   -0.0334    0.0088   -0.0104   -0.0054   -0.0010
          18   -0.0051    0.0012    0.0016   -0.0008   -0.0028    0.0006   -0.0050    0.0041
          19    0.0110   -0.0025   -0.0022    0.0000   -0.0010    0.0001   -0.0023    0.0037
          20    0.0000   -0.0006    0.0006   -0.0139    0.0089   -0.0141   -0.0080   -0.0036
          21   -0.0083    0.0047    0.0048   -0.0007   -0.0010    0.0003   -0.0009   -0.0035
          22    0.0019    0.0013    0.0005    0.0003    0.0034    0.0037   -0.0034   -0.0024
          23    0.0000   -0.0034   -0.0053    0.0011    0.0010   -0.0011   -0.0025    0.0073
          24   -0.0033    0.0033    0.0053   -0.0005   -0.0139   -0.0190    0.0194    0.0162
          25    0.0063   -0.0019   -0.0018    0.0003   -0.0003    0.0001   -0.0011    0.0029
          26    0.0000    0.0031   -0.0025    0.0433   -0.0136    0.0173    0.0093    0.0023
          27    0.0011   -0.0009   -0.0013    0.0009    0.0022   -0.0003    0.0039   -0.0029
          28    0.0047    0.0072    0.0055    0.0005    0.0035    0.0012    0.0002   -0.0003
          29   -0.0023    0.0015    0.0050   -0.0010   -0.0055   -0.0038    0.0044   -0.0027
          30   -0.0096   -0.0179   -0.0201    0.0012    0.0164    0.0187   -0.0182   -0.0098
          31    0.0086   -0.0165   -0.0142    0.0003   -0.0098    0.0110   -0.0420    0.0490
          32   -0.0062    0.0653   -0.0176   -0.0283    0.1024    0.0425    0.0437    0.1664
          33   -0.0058   -0.0122   -0.0127    0.0008    0.0024    0.0046   -0.0115    0.0273
          34    0.0319   -0.0072   -0.0053   -0.0004   -0.0091    0.0041   -0.0220    0.0258
          35    0.0013   -0.0540    0.0661   -0.0668   -0.0363    0.1312    0.0757    0.0094
          36   -0.0243    0.0039    0.0061   -0.0017   -0.0059    0.0017   -0.0050    0.0012
          37    0.0121    0.0143   -0.1254   -0.0658   -0.0237    0.0148    0.1415   -0.1082
          38   -0.0239   -0.0097   -0.0215    0.0266   -0.0220   -0.0445   -0.0350   -0.0128
          39   -0.0143   -0.0021   -0.0041    0.0045   -0.0051   -0.0084   -0.0081    0.0003
          40   -0.0509   -0.0720    0.1428    0.0424    0.0385   -0.0118   -0.0121   -0.0092
          41    0.0507   -0.0046   -0.0035   -0.0025    0.0104    0.0195    0.0106    0.0311
          42   -0.0168   -0.0001   -0.0029    0.0043   -0.0057   -0.0101   -0.0072   -0.0086
          43    0.0039   -0.0857    0.0371    0.0835    0.1551   -0.0620    0.1035   -0.0294
          44    0.0277    0.0047   -0.0096    0.0271   -0.0112   -0.0422   -0.0224   -0.0514
          45   -0.0141   -0.0016    0.0015   -0.0044    0.0000    0.0071    0.0019    0.0100
          46   -0.0514    0.1490   -0.0768   -0.0453   -0.0280    0.0228    0.0124   -0.0181
          47   -0.0505    0.0012    0.0100   -0.0057   -0.0053    0.0144    0.0120    0.0080
          48   -0.0181   -0.0003    0.0049   -0.0053    0.0010    0.0099    0.0051    0.0066
          49   -0.0402   -0.0805   -0.0758    0.0042   -0.0176   -0.0488    0.0547    0.0927
          50    0.0457    0.0614    0.0469    0.0000    0.0433    0.0533   -0.0498   -0.0586
          51   -0.0116   -0.0407   -0.0416    0.0035    0.0051   -0.0160    0.0246    0.0436
          52    0.0069    0.0463    0.0439    0.0001    0.0403    0.0305   -0.0030   -0.0763
          53   -0.0071   -0.0249   -0.0229   -0.0007   -0.0245   -0.0187    0.0059    0.0295
          54   -0.0128    0.0255    0.0290   -0.0047    0.0039    0.0065    0.0187   -0.0897
          55   -0.0251    0.0125   -0.0022    0.0857   -0.0200    0.0257    0.0182   -0.0040
          56   -0.0029    0.0037   -0.0021    0.0340   -0.0079    0.0099    0.0067   -0.0009
          57    0.0881   -0.0256   -0.0056   -0.1120    0.0276   -0.0340   -0.0229    0.0073
          58   -0.0248   -0.0030    0.0102   -0.0854    0.0241   -0.0263   -0.0091   -0.0087
          59    0.0005    0.0027   -0.0023    0.0315   -0.0087    0.0095    0.0036    0.0024
          60    0.0877   -0.0050   -0.0219    0.1139   -0.0305    0.0344    0.0129    0.0134
          61    0.0845   -0.0152   -0.0152    0.0016    0.0084   -0.0021    0.0122   -0.0070
          62    0.0005    0.0037   -0.0031    0.0417   -0.0105    0.0123    0.0065    0.0010
          63   -0.0671    0.0126    0.0126   -0.0007   -0.0078    0.0021   -0.0112    0.0067
          64    0.0707   -0.0187   -0.0217    0.0035    0.0262   -0.0058    0.0417   -0.0303
          65    0.0010   -0.0034   -0.0005    0.0294   -0.0335    0.0468    0.0266    0.0069
          66   -0.0398    0.0134    0.0153   -0.0019   -0.0165    0.0045   -0.0246    0.0153
          67    0.0060    0.0193    0.0180   -0.0049    0.0120    0.0190    0.0019   -0.0265
          68   -0.0045   -0.0076   -0.0074    0.0029   -0.0137   -0.0214    0.0086    0.0276
          69    0.0115   -0.0112   -0.0190    0.0021    0.0424    0.0499   -0.0473   -0.0353
          70    0.0554   -0.0096   -0.0095    0.0004    0.0035   -0.0005    0.0020    0.0035
          71    0.0001   -0.0074    0.0050   -0.1048    0.0299   -0.0390   -0.0211   -0.0059
          72   -0.0244    0.0030    0.0028   -0.0015    0.0007   -0.0008    0.0015   -0.0030
          73    0.0112    0.0024   -0.0129    0.0049    0.0298    0.0191   -0.0174    0.0018
          74    0.0014   -0.0063   -0.0146    0.0030    0.0183    0.0131   -0.0129   -0.0010
          75    0.0479    0.0820    0.0880   -0.0042   -0.0566   -0.0655    0.0644    0.0267
          76   -0.0132   -0.0027    0.0060   -0.0026    0.0070    0.0151   -0.0061   -0.0281
          77   -0.0037   -0.0111   -0.0149    0.0017    0.0074    0.0057   -0.0085    0.0030
          78    0.0411    0.0685    0.0763   -0.0043   -0.0508   -0.0575    0.0579    0.0252


   Root No.      33        34        35        36        37        38        39        40

                33 A      34 A      35 A      36 A      37 A      38 A      39 A      40 A   

                1145.2    1152.2    1160.0    1171.8    1180.3    1200.0    1205.5    1214.5
  
           1   -0.0063    0.0038   -0.0081   -0.0130    0.0133   -0.0190   -0.0048   -0.0062
           2    0.0385   -0.0127   -0.0085   -0.0031   -0.0002    0.0016    0.0076    0.0027
           3    0.0127    0.0190    0.0089    0.0131   -0.0264    0.0193   -0.0111    0.0075
           4    0.0056   -0.0065   -0.0026    0.0174   -0.0095    0.0172    0.0021    0.0108
[...]
 EFF. MASS   2.1635

 VIBRATION   52   52A       ATOM PAIR        ENERGY CONTRIBUTION    RADIAL
 FREQ.      1418.33        C  1 --  C  5          +16.0% ( 55.1%)    77.1%
 T-DIPOLE    0.0189        C  5 --  C  8          +10.0% ( 43.7%)    83.1%
 TRAVEL      0.0884        C  5 --  H 18           +9.1% ( 41.6%)     0.0%
 RED. MASS   0.8881        C  5 --  H 17           +9.0% ( 41.4%)     0.0%
 EFF. MASS   6.0857

 VIBRATION   53   53A       ATOM PAIR        ENERGY CONTRIBUTION    RADIAL
 FREQ.      1430.24        C  6 --  H 21          +11.6% ( 44.1%)     5.3%
 T-DIPOLE    0.0383        C  6 --  C  9          +11.4% ( 43.6%)    99.4%
 TRAVEL      0.0957        C  6 --  H 20           +9.3% ( 39.5%)     2.9%
 RED. MASS   0.4639        C  6 --  H 19           +9.3% ( 39.5%)     2.9%
 EFF. MASS   5.1456

 VIBRATION   54   54A       ATOM PAIR        ENERGY CONTRIBUTION    RADIAL
 FREQ.      1463.18        C  1 --  C  2          +11.0% ( 54.7%)    98.3%
 T-DIPOLE    0.0285        C  2 --  C  7          +10.3% ( 52.8%)    92.4%
 TRAVEL      0.0704        C  2 --  C  4           +8.4% ( 47.8%)    63.4%
 RED. MASS   1.3236        C  2 --  C  3           +8.3% ( 47.4%)    61.3%
 EFF. MASS   9.2982

 VIBRATION   55   55A       ATOM PAIR        ENERGY CONTRIBUTION    RADIAL
 FREQ.      1862.49        C  8 --  C 10          +45.3% ( 99.3%)    98.9%
 T-DIPOLE    0.2392        C  5 --  C  8          +16.8% ( 60.4%)    54.9%
 TRAVEL      0.0554        C  8 --  H 23          +15.4% ( 58.0%)     4.0%
 RED. MASS   5.2985        C 10 --  H 26          +11.0% ( 48.8%)    11.0%
 EFF. MASS  11.7932        C 10 --  H 25          +10.7% ( 48.4%)    12.9%

 VIBRATION   56   56A       ATOM PAIR        ENERGY CONTRIBUTION    RADIAL
 FREQ.      1891.20        C  7 --  C  9          +43.5% ( 97.4%)    96.3%
 T-DIPOLE    0.3115        C  2 --  C  7          +14.5% ( 56.1%)    56.0%
 TRAVEL      0.0550        C  6 --  C  9          +14.1% ( 55.3%)    56.3%
 RED. MASS   5.3462        C  7 --  H 22          +13.4% ( 54.0%)     3.5%
 EFF. MASS  11.7893        C  9 --  H 24          +13.0% ( 53.3%)     3.4%

 VIBRATION   57   57A       ATOM PAIR        ENERGY CONTRIBUTION    RADIAL
 FREQ.      2937.32        C  5 --  H 17          +55.9% ( 77.6%)    97.5%
 T-DIPOLE    0.0160        C  5 --  H 18          +37.2% ( 63.4%)    95.1%
 TRAVEL      0.1221        C  1 --  H 11           +4.2% ( 21.3%)    99.9%
 RED. MASS   0.4910        C  1 --  C  5           +1.2% ( 11.3%)     1.0%
 EFF. MASS   1.5406

 VIBRATION   58   58A       ATOM PAIR        ENERGY CONTRIBUTION    RADIAL
 FREQ.      2948.35        C  2 --  H 12          +94.5% ( 99.5%)   100.0%
 T-DIPOLE    0.0709        C  2 --  C  7           +1.1% ( 10.8%)    13.4%
 TRAVEL      0.1254        C  2 --  C  3           +1.1% ( 10.7%)    13.4%
 RED. MASS   0.9094        C  2 --  C  4           +1.1% ( 10.7%)    13.4%
 EFF. MASS   1.4551

 VIBRATION   59   59A       ATOM PAIR        ENERGY CONTRIBUTION    RADIAL
 FREQ.      2959.52        C  1 --  H 11          +90.3% ( 97.2%)   100.0%
 T-DIPOLE    0.0951        C  5 --  H 17           +2.4% ( 15.9%)    97.4%
 TRAVEL      0.1253        C  5 --  H 18           +2.0% ( 14.6%)    96.4%
 RED. MASS   0.8302        C  1 --  C  3           +1.0% ( 10.3%)    13.5%
 EFF. MASS   1.4514

 VIBRATION   60   60A       ATOM PAIR        ENERGY CONTRIBUTION    RADIAL
 FREQ.      3016.52        C  5 --  H 18          +58.8% ( 75.6%)    98.6%
 T-DIPOLE    0.0435        C  5 --  H 17          +38.5% ( 61.2%)    96.1%
 TRAVEL      0.1320        C  8 --  H 23           +0.8% (  8.7%)    99.7%
 RED. MASS   0.4881        C  5 --  C  8           +0.7% (  8.1%)    30.5%
 EFF. MASS   1.2825

 VIBRATION   61   61A       ATOM PAIR        ENERGY CONTRIBUTION    RADIAL
 FREQ.      3030.33        C  7 --  H 22          +95.9% ( 99.2%)   100.0%
 T-DIPOLE    0.2671        C  7 --  C  9           +1.4% ( 12.0%)    40.2%
 TRAVEL      0.1217        C  2 --  C  7           +1.3% ( 11.7%)    14.8%
 RED. MASS   0.9033        C  9 --  H 24           +0.5% (  7.0%)    95.9%
 EFF. MASS   1.5030

 VIBRATION   62   62A       ATOM PAIR        ENERGY CONTRIBUTION    RADIAL
 FREQ.      3034.69        C  3 --  H 13          +45.0% ( 69.8%)    98.1%
 T-DIPOLE    0.0674        C  3 --  H 14          +26.8% ( 53.9%)    95.0%
 TRAVEL      0.1203        C  4 --  H 15          +13.8% ( 38.7%)    97.9%
 RED. MASS   0.3313        C  4 --  H 16           +8.7% ( 30.6%)    95.3%
 EFF. MASS   1.5352

 VIBRATION   63   63A       ATOM PAIR        ENERGY CONTRIBUTION    RADIAL
 FREQ.      3037.54        C  9 --  H 24          +49.1% ( 71.9%)   100.0%
 T-DIPOLE    0.2130        C  4 --  H 15          +22.3% ( 48.5%)    98.0%
 TRAVEL      0.1205        C  4 --  H 16          +13.8% ( 38.2%)    95.2%
 RED. MASS   0.3255        C  3 --  H 13           +5.0% ( 23.0%)    98.2%
 EFF. MASS   1.5281

 VIBRATION   64   64A       ATOM PAIR        ENERGY CONTRIBUTION    RADIAL
 FREQ.      3038.20        C  9 --  H 24          +42.4% ( 66.9%)   100.0%
 T-DIPOLE    0.1700        C  4 --  H 15          +21.9% ( 48.1%)    98.0%
 TRAVEL      0.1202        C  4 --  H 16          +13.6% ( 37.8%)    95.2%
 RED. MASS   0.2663        C  8 --  H 23           +7.4% ( 27.9%)   100.0%
 EFF. MASS   1.5350

 VIBRATION   65   65A       ATOM PAIR        ENERGY CONTRIBUTION    RADIAL
 FREQ.      3039.19        C  8 --  H 23          +83.3% ( 92.8%)   100.0%
 T-DIPOLE    0.2282        C  3 --  H 13           +4.6% ( 21.8%)    97.9%
 TRAVEL      0.1214        C  3 --  H 14           +3.1% ( 18.0%)    95.5%
 RED. MASS   0.6939        C  4 --  H 15           +2.5% ( 15.9%)    98.1%
 EFF. MASS   1.5051

 VIBRATION   66   66A       ATOM PAIR        ENERGY CONTRIBUTION    RADIAL
 FREQ.      3069.82        C  6 --  H 19          +49.1% ( 72.3%)    97.0%
 T-DIPOLE    0.0236        C  6 --  H 20          +49.0% ( 72.2%)    97.0%
 TRAVEL      0.1210        C  6 --  C  9           +1.0% ( 10.2%)     0.0%
 RED. MASS   0.5093        C  6 --  H 21           +0.9% (  9.9%)     0.0%
 EFF. MASS   1.5011

 VIBRATION   67   67A       ATOM PAIR        ENERGY CONTRIBUTION    RADIAL
 FREQ.      3075.64        C  6 --  H 21          +62.6% ( 81.6%)    98.9%
 T-DIPOLE    0.0599        C  6 --  H 20          +17.2% ( 42.7%)    85.0%
 TRAVEL      0.1206        C  6 --  H 19          +17.1% ( 42.7%)    84.9%
 RED. MASS   0.4785        C  9 --  H 24           +2.0% ( 14.4%)   100.0%
 EFF. MASS   1.5083

 VIBRATION   68   68A       ATOM PAIR        ENERGY CONTRIBUTION    RADIAL
 FREQ.      3101.50        C  3 --  H 14          +38.5% ( 61.6%)    98.6%
 T-DIPOLE    0.1109        C  4 --  H 16          +23.4% ( 48.0%)    98.5%
 TRAVEL      0.1311        C  3 --  H 13          +22.1% ( 46.6%)    94.9%
 RED. MASS   0.2707        C  4 --  H 15          +14.1% ( 37.2%)    95.2%
 EFF. MASS   1.2655

 VIBRATION   69   69A       ATOM PAIR        ENERGY CONTRIBUTION    RADIAL
 FREQ.      3104.37        C  4 --  H 16          +37.8% ( 61.1%)    98.4%
 T-DIPOLE    0.0197        C  3 --  H 14          +23.8% ( 48.4%)    98.4%
 TRAVEL      0.1289        C  4 --  H 15          +22.5% ( 47.2%)    94.7%
 RED. MASS   0.2702        C  3 --  H 13          +13.6% ( 36.6%)    94.4%
 EFF. MASS   1.3066

 VIBRATION   70   70A       ATOM PAIR        ENERGY CONTRIBUTION    RADIAL
 FREQ.      3135.31        C 10 --  H 26          +91.6% ( 97.4%)    99.8%
 T-DIPOLE    0.1962        C 10 --  H 25           +7.0% ( 27.0%)    72.1%
 TRAVEL      0.1182        C  8 --  C 10           +1.3% ( 11.7%)    21.8%
 RED. MASS   0.8509
 EFF. MASS   1.5397

 VIBRATION   71   71A       ATOM PAIR        ENERGY CONTRIBUTION    RADIAL
 FREQ.      3147.57        C 10 --  H 25          +91.6% ( 96.4%)    99.7%
 T-DIPOLE    0.2591        C 10 --  H 26           +6.0% ( 24.6%)    42.8%
 TRAVEL      0.1209        C  8 --  C 10           +1.6% ( 12.7%)    73.5%
 RED. MASS   0.8162        C  8 --  H 23           +0.7% (  8.6%)    94.5%
 EFF. MASS   1.4645

 VIBRATION   72   72A       ATOM PAIR        ENERGY CONTRIBUTION    RADIAL
 FREQ.      3169.55        C  6 --  H 21          +34.6% ( 56.6%)    97.2%
 T-DIPOLE    0.0710        C  6 --  H 20          +32.6% ( 55.0%)    97.1%
 TRAVEL      0.1366        C  6 --  H 19          +32.5% ( 54.9%)    97.0%
 RED. MASS   0.3272        C  6 --  C  9           +0.3% (  5.4%)   100.0%
 EFF. MASS   1.1394

 SYMMETRY NUMBER FOR POINT-GROUP C1  =  1


          SYSTEM IS A GROUND STATE


    NULL



          MOLECULE IS NOT LINEAR

          THERE ARE 72 GENUINE VIBRATIONS IN THIS SYSTEM
          THIS THERMODYNAMICS CALCULATION IS LIMITED TO
          MOLECULES WHICH HAVE NO INTERNAL ROTATIONS




                    CALCULATED THERMODYNAMIC PROPERTIES
                                          *
   TEMP. (K)   PARTITION FUNCTION   H.O.F.    ENTHALPY  HEAT CAPACITY ENTROPY
                                   KCAL/MOL   CAL/MOLE    CAL/K/MOL  CAL/K/MOL


 298.00  VIB.     0.5075D+04                  5273.1676    35.5849    34.6504
         ROT.     0.9673D+06                   888.2813     2.9808    30.3691
         INT.     0.4910D+10                  6161.4489    38.5657    65.0195
         TRA.     0.1537D+28                  1480.4688     4.9680    40.6375
         TOT.                       17.619    7641.9178    43.5338   105.6570

 200.00  VIB.     0.2662D+03                  2432.0454    22.9086    23.2571
         ROT.     0.5319D+06                   596.1620     2.9808    29.1804
         INT.     0.1416D+09                  3028.2073    25.8894    52.4375
         TRA.     0.8452D+27                   993.6033     4.9680    38.6564
         TOT.                       13.999    4021.8106    30.8574    91.0939

 210.00  VIB.     0.3611D+03                  2666.7832    24.0457    24.4022
         ROT.     0.5723D+06                   625.9700     2.9808    29.3259
         INT.     0.2067D+09                  3292.7532    27.0265    53.7280
         TRA.     0.9094D+27                  1043.2834     4.9680    38.8988
         TOT.                       14.313    4336.0366    31.9945    92.6268

 220.00  VIB.     0.4892D+03                  2913.0943    25.2233    25.5478
         ROT.     0.6136D+06                   655.7781     2.9808    29.4645
         INT.     0.3002D+09                  3568.8724    28.2042    55.0123
         TRA.     0.9752D+27                  1092.9636     4.9680    39.1299
         TOT.                       14.639    4661.8360    33.1722    94.1422

 230.00  VIB.     0.6619D+03                  3171.3846    26.4413    26.6957
         ROT.     0.6559D+06                   685.5862     2.9808    29.5970
         INT.     0.4341D+09                  3856.9709    29.4222    56.2928
         TRA.     0.1042D+28                  1142.6437     4.9680    39.3507
         TOT.                       14.977    4999.6146    34.3902    95.6435

 240.00  VIB.     0.8945D+03                  3442.0507    27.6981    27.8475
         ROT.     0.6992D+06                   715.3943     2.9808    29.7239
         INT.     0.6254D+09                  4157.4450    30.6790    57.5714
         TRA.     0.1111D+28                  1192.3239     4.9680    39.5621
         TOT.                       15.327    5349.7689    35.6470    97.1336

 250.00  VIB.     0.1208D+04                  3725.4684    28.9912    29.0043
         ROT.     0.7433D+06                   745.2024     2.9808    29.8456
         INT.     0.8978D+09                  4470.6708    31.9720    58.8499
         TRA.     0.1181D+28                  1242.0041     4.9680    39.7650
         TOT.                       15.690    5712.6749    36.9400    98.6148

 260.00  VIB.     0.1630D+04                  4021.9843    30.3172    30.1671
         ROT.     0.7883D+06                   775.0105     2.9808    29.9625
         INT.     0.1285D+10                  4796.9949    33.2980    60.1296
         TRA.     0.1253D+28                  1291.6842     4.9680    39.9598
         TOT.                       16.066    6088.6791    38.2660   100.0894

 270.00  VIB.     0.2198D+04                  4331.9092    31.6723    31.3366
         ROT.     0.8343D+06                   804.8186     2.9808    30.0750
         INT.     0.1834D+10                  5136.7278    34.6531    61.4116
         TRA.     0.1326D+28                  1341.3644     4.9680    40.1473
         TOT.                       16.455    6478.0922    39.6211   101.5589

 280.00  VIB.     0.2964D+04                  4655.5130    33.0523    32.5133
         ROT.     0.8810D+06                   834.6267     2.9808    30.1834
         INT.     0.2612D+10                  5490.1397    36.0331    62.6967
         TRA.     0.1400D+28                  1391.0445     4.9680    40.3280
         TOT.                       16.858    6881.1843    41.0011   103.0247

 290.00  VIB.     0.3996D+04                  4993.0229    34.4528    33.6975
         ROT.     0.9287D+06                   864.4348     2.9808    30.2880
         INT.     0.3711D+10                  5857.4578    37.4336    63.9855
         TRA.     0.1476D+28                  1440.7247     4.9680    40.5023
         TOT.                       17.275    7298.1825    42.4016   104.4878

 300.00  VIB.     0.5388D+04                  5344.6218    35.8693    34.8894
         ROT.     0.9771D+06                   894.2429     2.9808    30.3891
         INT.     0.5265D+10                  6238.8647    38.8501    65.2784
         TRA.     0.1553D+28                  1490.4049     4.9680    40.6707
         TOT.                       17.706    7729.2696    43.8182   105.9492

 310.00  VIB.     0.7265D+04                  5710.4485    37.2976    36.0888
         ROT.     0.1026D+07                   924.0510     2.9808    30.4868
         INT.     0.7457D+10                  6634.4995    40.2784    66.5756
         TRA.     0.1631D+28                  1540.0850     4.9680    40.8336
         TOT.                       18.152    8174.5846    45.2464   107.4092

 320.00  VIB.     0.9799D+04                  6090.5991    38.7334    37.2956
         ROT.     0.1076D+07                   953.8591     2.9808    30.5814
         INT.     0.1055D+11                  7044.4583    41.7142    67.8770
         TRA.     0.1711D+28                  1589.7652     4.9680    40.9914
         TOT.                       18.611    8634.2235    46.6823   108.8684

 330.00  VIB.     0.1322D+05                  6485.1289    40.1728    38.5095
         ROT.     0.1127D+07                   983.6672     2.9808    30.6732
         INT.     0.1490D+11                  7468.7962    43.1536    69.1827
         TRA.     0.1791D+28                  1639.4454     4.9680    41.1442
         TOT.                       19.085    9108.2415    48.1216   110.3269

 340.00  VIB.     0.1784D+05                  6894.0550    41.6121    39.7302
         ROT.     0.1179D+07                  1013.4753     2.9808    30.7621
         INT.     0.2104D+11                  7907.5303    44.5929    70.4923
         TRA.     0.1874D+28                  1689.1255     4.9680    41.2926
         TOT.                       19.574    9596.6558    49.5609   111.7849

 350.00  VIB.     0.2409D+05                  7317.3588    43.0478    40.9571
         ROT.     0.1231D+07                  1043.2834     2.9808    30.8485
         INT.     0.2967D+11                  8360.6422    46.0287    71.8057
         TRA.     0.1957D+28                  1738.8057     4.9680    41.4366
         TOT.                       20.077   10099.4479    50.9967   113.2422

 360.00  VIB.     0.3255D+05                  7754.9899    44.4770    42.1899
         ROT.     0.1284D+07                  1073.0915     2.9808    30.9325
         INT.     0.4181D+11                  8828.0814    47.4579    73.1224
         TRA.     0.2041D+28                  1788.4859     4.9680    41.5765
         TOT.                       20.594   10616.5673    52.4259   114.6989

 370.00  VIB.     0.4400D+05                  8206.8687    45.8969    43.4279
         ROT.     0.1338D+07                  1102.8996     2.9808    31.0142
         INT.     0.5889D+11                  9309.7683    48.8778    74.4421
         TRA.     0.2127D+28                  1838.1660     4.9680    41.7126
         TOT.                       21.125   11147.9343    53.8458   116.1547

 380.00  VIB.     0.5951D+05                  8672.8898    47.3051    44.6706
         ROT.     0.1393D+07                  1132.7077     2.9808    31.0937
         INT.     0.8290D+11                  9805.5975    50.2859    75.7643
         TRA.     0.2214D+28                  1887.8462     4.9680    41.8451
         TOT.                       21.671   11693.4436    55.2540   117.6094

 390.00  VIB.     0.8054D+05                  9152.9252    48.6995    45.9174
         ROT.     0.1448D+07                  1162.5158     2.9808    31.1711
         INT.     0.1166D+12                 10315.4410    51.6803    77.0885
         TRA.     0.2302D+28                  1937.5263     4.9680    41.9742
         TOT.                       22.230   12252.9674    56.6483   119.0627

 400.00  VIB.     0.1091D+06                  9646.8276    50.0782    47.1678
         ROT.     0.1504D+07                  1192.3239     2.9808    31.2466
         INT.     0.1641D+12                 10839.1515    53.0590    78.4144
         TRA.     0.2391D+28                  1987.2065     4.9680    42.1000
         TOT.                       22.804   12826.3580    58.0271   120.5143

   *: NOTE: HEATS OF FORMATION ARE RELATIVE TO THE
            ELEMENTS IN THEIR STANDARD STATE AT 298K
              (=  Standard Enthalpy of Formation).

            Hvib:  Zero-point energy is not included.
                   frequencies of less than zero cm-1 are not included.
            Hrot = (3/2)RT
            Htra = (3/2)RT + pV = (5/2)RT

            Heat capacity is Cp, not Cv

           For more information, see: HTTP://OpenMOPAC.net/Manual/thermochemistry.html


           FORCE CONSTANT IN CARTESIAN COORDINATES (Millidynes/A)

    ATOM   CHEMICAL       X               Y               Z
   NUMBER   SYMBOL  FORCE CONSTANT  FORCE CONSTANT  FORCE CONSTANT

      1       C        9.803564        6.339623        8.638968
      2       C       10.049840        5.931724        9.287132
      3       C        5.937220        9.699803        8.652072
      4       C        5.946599        9.716419        8.655853
      5       C        8.723332        8.846971        8.004774
      6       C        8.614580        7.943946        8.887080
      7       C       15.565161        2.484959        9.350639
      8       C       15.226618        9.017817        2.901769
      9       C       15.360359        2.383954        9.429218
     10       C       15.189378        8.955696        2.357861
     11       H        2.007324        0.664768        3.592824
     12       H        2.015866        0.655742        3.589015
     13       H        0.686311        2.278239        3.657611
     14       H        0.666406        2.255564        3.718344
     15       H        0.685680        2.183803        3.757835
     16       H        0.666930        2.353442        3.621219
     17       H        1.910611        0.714169        3.627066
     18       H        1.682713        3.999843        0.686485
     19       H        2.208020        3.780136        0.676672
     20       H        2.245784        3.739229        0.679565
     21       H        2.067555        0.657304        4.045840
     22       H        1.733392        0.360850        4.097002
     23       H        1.380509        4.298634        0.523542
     24       H        1.731180        0.358724        4.126806
     25       H        2.649454        3.474262        0.353833
     26       H        1.522471        4.428773        0.513256



 TOTAL CPU TIME:             5.02 SECONDS

 == MOPAC DONE ==
