 *******************************************************************************
 ** Site#: 14399           For non-commercial use only        Version 13.159M **
 *******************************************************************************
 ** Cite this work as: MOPAC2012, James J. P. Stewart, Stewart Computational  **
 ** Chemistry, Version 13.159M web: HTTP://OpenMOPAC.net  Days remaining:   6 **
 *******************************************************************************
 **                                                                           **
 **                                MOPAC2012                                  **
 **                                                                           **
 *******************************************************************************

                            PM3 CALCULATION RESULTS


 *******************************************************************************
 *  CALCULATION DONE:                                Mon Jun  2 11:12:55 2014  *
 *  PM3      - The PM3 Hamiltonian to be used
 *  PRECISE  - CRITERIA TO BE INCREASED BY 100 TIMES
 *  NOSYM    - POINT-GROUP SYMMETRY SET TO C1
 *  T=       - A TIME OF 172800.0 SECONDS REQUESTED
 *  DUMP=N   - RESTART FILE WRITTEN EVERY  7200.000 SECONDS
 *******************************************************************************
pm3  precise nosym
 InChI=1S/C10H14/c1-3-9(4-2)10-7-5-6-8-10/h3,5-10H,1,4H2,2H3

   ATOM   CHEMICAL          X               Y               Z
  NUMBER   SYMBOL      (ANGSTROMS)     (ANGSTROMS)     (ANGSTROMS)
 
     1       C         -0.38030000  *   0.00990000  *   0.03560000  *
     2       C          0.94130000  *   0.10100000  *   0.83270000  *
     3       C         -1.31120000  *  -1.09760000  *   0.56910000  *
     4       C         -2.57030000  *  -1.31560000  *  -0.26900000  *
     5       C          1.81260000  *  -1.11730000  *   0.70950000  *
     6       C          1.88630000  *   1.13540000  *   0.28810000  *
     7       C         -1.09880000  *   1.34010000  *   0.08340000  *
     8       C          2.98660000  *  -0.82400000  *   0.17780000  *
     9       C          3.03280000  *   0.59740000  *  -0.08930000  *
    10       C         -1.35970000  *   2.06260000  *  -1.00930000  *
    11       H         -0.12040000  *  -0.25550000  *  -1.01880000  *
    12       H          0.74430000  *   0.30890000  *   1.91060000  *
    13       H         -0.77810000  *  -2.07510000  *   0.58290000  *
    14       H         -1.60830000  *  -0.88410000  *   1.62280000  *
    15       H         -2.30710000  *  -1.55240000  *  -1.32510000  *
    16       H         -3.22970000  *  -0.41860000  *  -0.25230000  *
    17       H         -3.15590000  *  -2.16930000  *   0.14180000  *
    18       H          1.54440000  *  -2.11780000  *   1.03230000  *
    19       H          1.67220000  *   2.19700000  *   0.21490000  *
    20       H         -1.41640000  *   1.72750000  *   1.05110000  *
    21       H          3.78760000  *  -1.53330000  *  -0.00210000  *
    22       H          3.87230000  *   1.14160000  *  -0.50920000  *
    23       H         -1.87930000  *   3.01470000  *  -0.92160000  *
    24       H         -1.06480000  *   1.72450000  *  -2.00120000  *
 


          CARTESIAN COORDINATES 

    NO.       ATOM         X         Y         Z

     1         C       -0.3803    0.0099    0.0356
     2         C        0.9413    0.1010    0.8327
     3         C       -1.3112   -1.0976    0.5691
     4         C       -2.5703   -1.3156   -0.2690
     5         C        1.8126   -1.1173    0.7095
     6         C        1.8863    1.1354    0.2881
     7         C       -1.0988    1.3401    0.0834
     8         C        2.9866   -0.8240    0.1778
     9         C        3.0328    0.5974   -0.0893
    10         C       -1.3597    2.0626   -1.0093
    11         H       -0.1204   -0.2555   -1.0188
    12         H        0.7443    0.3089    1.9106
    13         H       -0.7781   -2.0751    0.5829
    14         H       -1.6083   -0.8841    1.6228
    15         H       -2.3071   -1.5524   -1.3251
    16         H       -3.2297   -0.4186   -0.2523
    17         H       -3.1559   -2.1693    0.1418
    18         H        1.5444   -2.1178    1.0323
    19         H        1.6722    2.1970    0.2149
    20         H       -1.4164    1.7275    1.0511
    21         H        3.7876   -1.5333   -0.0021
    22         H        3.8723    1.1416   -0.5092
    23         H       -1.8793    3.0147   -0.9216
    24         H       -1.0648    1.7245   -2.0012

  H: (PM3): J. J. P. STEWART, J. COMP. CHEM. 10, 209 (1989).
  C: (PM3): J. J. P. STEWART, J. COMP. CHEM. 10, 209 (1989).

           Empirical Formula: C10 H14  =    24 atoms



      MOLECULAR POINT GROUP   :   C1  


      RHF CALCULATION, NO. OF DOUBLY OCCUPIED LEVELS =   27

      Geometry optimization using EF

          DIAGONAL MATRIX USED AS START HESSIAN

 CYCLE:     1 TIME:   0.011 TIME LEFT:  2.00D  GRAD.:   113.849 HEAT: 43.45573
 CYCLE:     2 TIME:   0.022 TIME LEFT:  2.00D  GRAD.:    71.374 HEAT: 41.70725
 CYCLE:     3 TIME:   0.008 TIME LEFT:  2.00D  GRAD.:    43.641 HEAT: 40.36926
 CYCLE:     4 TIME:   0.021 TIME LEFT:  2.00D  GRAD.:    25.680 HEAT: 40.03696
 CYCLE:     5 TIME:   0.008 TIME LEFT:  2.00D  GRAD.:    17.689 HEAT: 39.75629
 CYCLE:     6 TIME:   0.008 TIME LEFT:  2.00D  GRAD.:    22.884 HEAT: 39.39041
 CYCLE:     7 TIME:   0.008 TIME LEFT:  2.00D  GRAD.:    24.356 HEAT: 39.01552
 CYCLE:     8 TIME:   0.008 TIME LEFT:  2.00D  GRAD.:    36.256 HEAT: 38.97254
 CYCLE:     9 TIME:   0.015 TIME LEFT:  2.00D  GRAD.:    20.405 HEAT: 38.68285
 CYCLE:    10 TIME:   0.015 TIME LEFT:  2.00D  GRAD.:    15.705 HEAT: 38.58564
 CYCLE:    11 TIME:   0.008 TIME LEFT:  2.00D  GRAD.:    19.430 HEAT: 38.57066
 CYCLE:    12 TIME:   0.008 TIME LEFT:  2.00D  GRAD.:    13.338 HEAT: 38.48919
 CYCLE:    13 TIME:   0.015 TIME LEFT:  2.00D  GRAD.:    14.457 HEAT: 38.47022
 CYCLE:    14 TIME:   0.008 TIME LEFT:  2.00D  GRAD.:    10.186 HEAT: 38.43020
 CYCLE:    15 TIME:   0.008 TIME LEFT:  2.00D  GRAD.:     9.775 HEAT: 38.40327
 CYCLE:    16 TIME:   0.008 TIME LEFT:  2.00D  GRAD.:     8.333 HEAT: 38.37180
 CYCLE:    17 TIME:   0.008 TIME LEFT:  2.00D  GRAD.:    10.101 HEAT: 38.35255
 CYCLE:    18 TIME:   0.008 TIME LEFT:  2.00D  GRAD.:     7.831 HEAT: 38.31732
 CYCLE:    19 TIME:   0.008 TIME LEFT:  2.00D  GRAD.:    12.099 HEAT: 38.31350
 CYCLE:    20 TIME:   0.008 TIME LEFT:  2.00D  GRAD.:     8.414 HEAT: 38.28346
 CYCLE:    21 TIME:   0.014 TIME LEFT:  2.00D  GRAD.:     6.701 HEAT: 38.27351
 CYCLE:    22 TIME:   0.008 TIME LEFT:  2.00D  GRAD.:     4.768 HEAT: 38.26390
 CYCLE:    23 TIME:   0.014 TIME LEFT:  2.00D  GRAD.:     3.934 HEAT: 38.25940
 CYCLE:    24 TIME:   0.008 TIME LEFT:  2.00D  GRAD.:     4.319 HEAT: 38.25736
 CYCLE:    25 TIME:   0.008 TIME LEFT:  2.00D  GRAD.:     2.674 HEAT: 38.25199
 CYCLE:    26 TIME:   0.008 TIME LEFT:  2.00D  GRAD.:     2.483 HEAT: 38.24918
 CYCLE:    27 TIME:   0.008 TIME LEFT:  2.00D  GRAD.:     3.100 HEAT: 38.24705
 CYCLE:    28 TIME:   0.008 TIME LEFT:  2.00D  GRAD.:     2.922 HEAT: 38.24297
 CYCLE:    29 TIME:   0.008 TIME LEFT:  2.00D  GRAD.:     1.861 HEAT: 38.23818
 CYCLE:    30 TIME:   0.008 TIME LEFT:  2.00D  GRAD.:     2.959 HEAT: 38.23431
 CYCLE:    31 TIME:   0.008 TIME LEFT:  2.00D  GRAD.:     2.715 HEAT: 38.22975
 CYCLE:    32 TIME:   0.008 TIME LEFT:  2.00D  GRAD.:     1.783 HEAT: 38.22523
 CYCLE:    33 TIME:   0.008 TIME LEFT:  2.00D  GRAD.:     1.755 HEAT: 38.21940
 CYCLE:    34 TIME:   0.008 TIME LEFT:  2.00D  GRAD.:     1.983 HEAT: 38.21347
 CYCLE:    35 TIME:   0.008 TIME LEFT:  2.00D  GRAD.:     2.246 HEAT: 38.20694
 CYCLE:    36 TIME:   0.008 TIME LEFT:  2.00D  GRAD.:     1.922 HEAT: 38.20031
 CYCLE:    37 TIME:   0.008 TIME LEFT:  2.00D  GRAD.:     1.813 HEAT: 38.19463
 CYCLE:    38 TIME:   0.008 TIME LEFT:  2.00D  GRAD.:     1.388 HEAT: 38.19084
 CYCLE:    39 TIME:   0.008 TIME LEFT:  2.00D  GRAD.:     1.047 HEAT: 38.18792
 CYCLE:    40 TIME:   0.008 TIME LEFT:  2.00D  GRAD.:     0.880 HEAT: 38.18563
 CYCLE:    41 TIME:   0.008 TIME LEFT:  2.00D  GRAD.:     0.838 HEAT: 38.18412
 CYCLE:    42 TIME:   0.008 TIME LEFT:  2.00D  GRAD.:     0.858 HEAT: 38.18232
 CYCLE:    43 TIME:   0.008 TIME LEFT:  2.00D  GRAD.:     0.882 HEAT: 38.18026
 CYCLE:    44 TIME:   0.008 TIME LEFT:  2.00D  GRAD.:     0.817 HEAT: 38.17816
 CYCLE:    45 TIME:   0.008 TIME LEFT:  2.00D  GRAD.:     0.856 HEAT: 38.17653
 CYCLE:    46 TIME:   0.008 TIME LEFT:  2.00D  GRAD.:     0.899 HEAT: 38.17513
 CYCLE:    47 TIME:   0.008 TIME LEFT:  2.00D  GRAD.:     0.909 HEAT: 38.17335
 CYCLE:    48 TIME:   0.008 TIME LEFT:  2.00D  GRAD.:     1.072 HEAT: 38.17116
 CYCLE:    49 TIME:   0.008 TIME LEFT:  2.00D  GRAD.:     0.998 HEAT: 38.16889
 CYCLE:    50 TIME:   0.008 TIME LEFT:  2.00D  GRAD.:     1.044 HEAT: 38.16582
 CYCLE:    51 TIME:   0.008 TIME LEFT:  2.00D  GRAD.:     1.152 HEAT: 38.16190
 CYCLE:    52 TIME:   0.008 TIME LEFT:  2.00D  GRAD.:     1.144 HEAT: 38.15819
 CYCLE:    53 TIME:   0.008 TIME LEFT:  2.00D  GRAD.:     1.074 HEAT: 38.15478
 CYCLE:    54 TIME:   0.008 TIME LEFT:  2.00D  GRAD.:     0.990 HEAT: 38.15187
 CYCLE:    55 TIME:   0.008 TIME LEFT:  2.00D  GRAD.:     1.144 HEAT: 38.14916
 CYCLE:    56 TIME:   0.008 TIME LEFT:  2.00D  GRAD.:     1.058 HEAT: 38.14680
 CYCLE:    57 TIME:   0.008 TIME LEFT:  2.00D  GRAD.:     0.770 HEAT: 38.14499
 CYCLE:    58 TIME:   0.008 TIME LEFT:  2.00D  GRAD.:     0.607 HEAT: 38.14360
 CYCLE:    59 TIME:   0.008 TIME LEFT:  2.00D  GRAD.:     0.605 HEAT: 38.14275
 CYCLE:    60 TIME:   0.008 TIME LEFT:  2.00D  GRAD.:     0.638 HEAT: 38.14135
 CYCLE:    61 TIME:   0.008 TIME LEFT:  2.00D  GRAD.:     0.640 HEAT: 38.14012
 CYCLE:    62 TIME:   0.008 TIME LEFT:  2.00D  GRAD.:     0.580 HEAT: 38.13915
 CYCLE:    63 TIME:   0.008 TIME LEFT:  2.00D  GRAD.:     0.502 HEAT: 38.13844
 CYCLE:    64 TIME:   0.008 TIME LEFT:  2.00D  GRAD.:     0.489 HEAT: 38.13788
 CYCLE:    65 TIME:   0.008 TIME LEFT:  2.00D  GRAD.:     0.495 HEAT: 38.13738
 CYCLE:    66 TIME:   0.008 TIME LEFT:  2.00D  GRAD.:     0.526 HEAT: 38.13680
 CYCLE:    67 TIME:   0.008 TIME LEFT:  2.00D  GRAD.:     0.614 HEAT: 38.13594
 CYCLE:    68 TIME:   0.008 TIME LEFT:  2.00D  GRAD.:     0.698 HEAT: 38.13477
 CYCLE:    69 TIME:   0.008 TIME LEFT:  2.00D  GRAD.:     0.788 HEAT: 38.13332
 CYCLE:    70 TIME:   0.008 TIME LEFT:  2.00D  GRAD.:     0.808 HEAT: 38.13168
 CYCLE:    71 TIME:   0.008 TIME LEFT:  2.00D  GRAD.:     0.807 HEAT: 38.12988
 CYCLE:    72 TIME:   0.008 TIME LEFT:  2.00D  GRAD.:     0.782 HEAT: 38.12808
 CYCLE:    73 TIME:   0.008 TIME LEFT:  2.00D  GRAD.:     0.730 HEAT: 38.12647
 CYCLE:    74 TIME:   0.008 TIME LEFT:  2.00D  GRAD.:     0.659 HEAT: 38.12529
 CYCLE:    75 TIME:   0.008 TIME LEFT:  2.00D  GRAD.:     0.589 HEAT: 38.12439
 CYCLE:    76 TIME:   0.008 TIME LEFT:  2.00D  GRAD.:     0.613 HEAT: 38.12358
 CYCLE:    77 TIME:   0.008 TIME LEFT:  2.00D  GRAD.:     0.555 HEAT: 38.12280
 CYCLE:    78 TIME:   0.008 TIME LEFT:  2.00D  GRAD.:     0.541 HEAT: 38.12203
 CYCLE:    79 TIME:   0.008 TIME LEFT:  2.00D  GRAD.:     0.520 HEAT: 38.12129
 CYCLE:    80 TIME:   0.008 TIME LEFT:  2.00D  GRAD.:     0.604 HEAT: 38.12031
 CYCLE:    81 TIME:   0.008 TIME LEFT:  2.00D  GRAD.:     0.760 HEAT: 38.11898
 CYCLE:    82 TIME:   0.008 TIME LEFT:  2.00D  GRAD.:     1.059 HEAT: 38.11648
 CYCLE:    83 TIME:   0.008 TIME LEFT:  2.00D  GRAD.:     1.111 HEAT: 38.11425
 CYCLE:    84 TIME:   0.008 TIME LEFT:  2.00D  GRAD.:     1.563 HEAT: 38.10815
 CYCLE:    85 TIME:   0.008 TIME LEFT:  2.00D  GRAD.:     1.252 HEAT: 38.10497
 CYCLE:    86 TIME:   0.008 TIME LEFT:  2.00D  GRAD.:     1.325 HEAT: 38.09827
 CYCLE:    87 TIME:   0.008 TIME LEFT:  2.00D  GRAD.:     0.999 HEAT: 38.09582
 CYCLE:    88 TIME:   0.008 TIME LEFT:  2.00D  GRAD.:     0.762 HEAT: 38.09379
 CYCLE:    89 TIME:   0.008 TIME LEFT:  2.00D  GRAD.:     0.798 HEAT: 38.09163
 CYCLE:    90 TIME:   0.008 TIME LEFT:  2.00D  GRAD.:     0.788 HEAT: 38.09011
 CYCLE:    91 TIME:   0.008 TIME LEFT:  2.00D  GRAD.:     0.687 HEAT: 38.08852
 CYCLE:    92 TIME:   0.008 TIME LEFT:  2.00D  GRAD.:     0.629 HEAT: 38.08770
 CYCLE:    93 TIME:   0.008 TIME LEFT:  2.00D  GRAD.:     0.970 HEAT: 38.08603
 CYCLE:    94 TIME:   0.008 TIME LEFT:  2.00D  GRAD.:     0.832 HEAT: 38.08507
 CYCLE:    95 TIME:   0.008 TIME LEFT:  2.00D  GRAD.:     0.685 HEAT: 38.08231
 CYCLE:    96 TIME:   0.008 TIME LEFT:  2.00D  GRAD.:     0.830 HEAT: 38.08021
 CYCLE:    97 TIME:   0.008 TIME LEFT:  2.00D  GRAD.:     1.373 HEAT: 38.07541
 CYCLE:    98 TIME:   0.008 TIME LEFT:  2.00D  GRAD.:     0.906 HEAT: 38.07374
 CYCLE:    99 TIME:   0.008 TIME LEFT:  2.00D  GRAD.:     0.821 HEAT: 38.07205
 CYCLE:   100 TIME:   0.008 TIME LEFT:  2.00D  GRAD.:     0.397 HEAT: 38.07131
 CYCLE:   101 TIME:   0.008 TIME LEFT:  2.00D  GRAD.:     0.327 HEAT: 38.07109
 CYCLE:   102 TIME:   0.008 TIME LEFT:  2.00D  GRAD.:     0.467 HEAT: 38.07040
 CYCLE:   103 TIME:   0.008 TIME LEFT:  2.00D  GRAD.:     0.317 HEAT: 38.07020
 CYCLE:   104 TIME:   0.008 TIME LEFT:  2.00D  GRAD.:     0.272 HEAT: 38.06981
 CYCLE:   105 TIME:   0.008 TIME LEFT:  2.00D  GRAD.:     0.306 HEAT: 38.06951
 CYCLE:   106 TIME:   0.008 TIME LEFT:  2.00D  GRAD.:     0.438 HEAT: 38.06884
 CYCLE:   107 TIME:   0.008 TIME LEFT:  2.00D  GRAD.:     0.348 HEAT: 38.06860
 CYCLE:   108 TIME:   0.008 TIME LEFT:  2.00D  GRAD.:     0.333 HEAT: 38.06816
 CYCLE:   109 TIME:   0.008 TIME LEFT:  2.00D  GRAD.:     0.205 HEAT: 38.06799
 CYCLE:   110 TIME:   0.008 TIME LEFT:  2.00D  GRAD.:     0.125 HEAT: 38.06790
 CYCLE:   111 TIME:   0.008 TIME LEFT:  2.00D  GRAD.:     0.098 HEAT: 38.06785
 CYCLE:   112 TIME:   0.007 TIME LEFT:  2.00D  GRAD.:     0.081 HEAT: 38.06783
 CYCLE:   113 TIME:   0.008 TIME LEFT:  2.00D  GRAD.:     0.092 HEAT: 38.06782
 CYCLE:   114 TIME:   0.007 TIME LEFT:  2.00D  GRAD.:     0.066 HEAT: 38.06780
 CYCLE:   115 TIME:   0.007 TIME LEFT:  2.00D  GRAD.:     0.064 HEAT: 38.06779
 CYCLE:   116 TIME:   0.007 TIME LEFT:  2.00D  GRAD.:     0.046 HEAT: 38.06778

     RMS GRADIENT =  0.04626  IS LESS THAN CUTOFF =  0.05000



 -------------------------------------------------------------------------------
pm3  precise nosym
 InChI=1S/C10H14/c1-3-9(4-2)10-7-5-6-8-10/h3,5-10H,1,4H2,2H3



     GEOMETRY OPTIMISED USING EIGENVECTOR FOLLOWING (EF).     
     SCF FIELD WAS ACHIEVED                                   


                              PM3 CALCULATION
                                                       MOPAC2012 (Version: 13.159M)
                                                       Mon Jun  2 11:12:56 2014
                                                       No. of days left =   6




          FINAL HEAT OF FORMATION =         38.06778 KCAL/MOL =     159.27560 KJ/MOL


          TOTAL ENERGY            =      -1399.41088 EV
          ELECTRONIC ENERGY       =      -7828.18128 EV  POINT GROUP:     C1  
          CORE-CORE REPULSION     =       6428.77040 EV
          COSMO AREA              =        190.96 SQUARE ANGSTROMS
          COSMO VOLUME            =        198.69 CUBIC ANGSTROMS

          GRADIENT NORM           =          0.04626
          IONIZATION POTENTIAL    =          9.243205 EV
          HOMO LUMO ENERGIES (EV) =         -9.243  0.290
          NO. OF FILLED LEVELS    =         27
          MOLECULAR WEIGHT        =        134.221

          MOLECULAR DIMENSIONS (Angstroms)

            Atom       Atom       Distance
            H    21    H    23     7.46327
            H    22    H    17     6.94479
            H    15    H    12     3.51074


          SCF CALCULATIONS        =        126
          COMPUTATION TIME        =          0.983 SECONDS




   ATOM   CHEMICAL          X               Y               Z
  NUMBER   SYMBOL      (ANGSTROMS)     (ANGSTROMS)     (ANGSTROMS)
 
     1       C         -0.39305092  *   0.07710574  *   0.02447490  *
     2       C          0.93345629  *   0.14638850  *   0.78998923  *
     3       C         -1.27041544  *  -1.04436379  *   0.59465133  *
     4       C         -2.41027785  *  -1.39973791  *  -0.33153662  *
     5       C          1.71419336  *  -1.14552952  *   0.70769981  *
     6       C          1.91036352  *   1.14662585  *   0.21835098  *
     7       C         -1.10963618  *   1.38834786  *   0.13363660  *
     8       C          2.94781421  *  -0.90342929  *   0.21643247  *
     9       C          3.07038807  *   0.52589012  *  -0.08726884  *
    10       C         -1.48150810  *   2.10173915  *  -0.92242833  *
    11       H         -0.16933404  *  -0.14995912  *  -1.04744058  *
    12       H          0.74347220  *   0.39344146  *   1.86242367  *
    13       H         -0.63389282  *  -1.93951232  *   0.77848975  *
    14       H         -1.66243145  *  -0.74862664  *   1.58808485  *
    15       H         -2.04671165  *  -1.77851560  *  -1.29616472  *
    16       H         -3.04388786  *  -0.52744298  *  -0.54202614  *
    17       H         -3.05033187  *  -2.17611810  *   0.10627778  *
    18       H          1.25941161  *  -2.09411605  *   0.99886975  *
    19       H          1.65822330  *   2.19830887  *   0.09887329  *
    20       H         -1.32237591  *   1.73132795  *   1.15403935  *
    21       H          3.74853700  *  -1.62108258  *   0.04984396  *
    22       H          3.97311584  *   0.97363741  *  -0.49789086  *
    23       H         -2.00665911  *   3.04781136  *  -0.83309552  *
    24       H         -1.28977014  *   1.79502233  *  -1.94735184  *

           Empirical Formula: C10 H14  =    24 atoms



      MOLECULAR POINT GROUP   :   C1  


                  EIGENVALUES  
 -41.46005 -36.37367 -31.87631 -28.36186 -27.23107 -23.75110 -21.49978 -19.92381
 -19.00254 -18.35915 -17.94608 -16.19197 -15.88431 -15.33091 -14.50948 -14.13569
 -13.89392 -13.49154 -13.00159 -12.88886 -12.59272 -12.20698 -11.98530 -11.47645
 -11.03832 -10.26061  -9.24320   0.29037   1.11326   2.01530   3.17987   3.31551
   3.37754   3.54788   3.61958   3.78369   3.93550   3.94550   3.99055   4.09630
   4.14267   4.27761   4.36910   4.40203   4.59572   4.70048   4.86542   4.93228
   4.98943   5.55078   5.72024   5.80950   5.87394   6.15920


              NET ATOMIC CHARGES AND DIPOLE CONTRIBUTIONS

  ATOM NO.   TYPE          CHARGE      No. of ELECS.   s-Pop       p-Pop       
    1          C          -0.024212        4.0242     1.16582     2.85839
    2          C          -0.035362        4.0354     1.16831     2.86706
    3          C          -0.104325        4.1043     1.16374     2.94058
    4          C          -0.111471        4.1115     1.13813     2.97334
    5          C          -0.167000        4.1670     1.21110     2.95590
    6          C          -0.152725        4.1527     1.20939     2.94334
    7          C          -0.138314        4.1383     1.19819     2.94012
    8          C          -0.113184        4.1132     1.19163     2.92155
    9          C          -0.122595        4.1226     1.19276     2.92983
   10          C          -0.159313        4.1593     1.18301     2.97631
   11          H           0.077390        0.9226     0.92261
   12          H           0.092339        0.9077     0.90766
   13          H           0.057043        0.9430     0.94296
   14          H           0.051063        0.9489     0.94894
   15          H           0.039039        0.9610     0.96096
   16          H           0.043193        0.9568     0.95681
   17          H           0.037738        0.9623     0.96226
   18          H           0.122174        0.8778     0.87783
   19          H           0.119957        0.8800     0.88004
   20          H           0.098407        0.9016     0.90159
   21          H           0.113653        0.8863     0.88635
   22          H           0.113956        0.8860     0.88604
   23          H           0.079021        0.9210     0.92098
   24          H           0.083529        0.9165     0.91647
 DIPOLE           X         Y         Z       TOTAL
 POINT-CHG.    -0.373    -0.085     0.114     0.400
 HYBRID        -0.008     0.054     0.066     0.085
 SUM           -0.381    -0.031     0.180     0.423


          ATOMIC ORBITAL ELECTRON POPULATIONS

    Atom      s        px        py        pz   
    1  C   1.16582   0.92112   0.93495   1.00232
    2  C   1.16831   0.94376   0.93153   0.99177
    3  C   1.16374   0.97318   0.98143   0.98598
    4  C   1.13813   0.97713   1.00772   0.98850
    5  C   1.21110   0.96725   0.97638   1.01227
    6  C   1.20939   0.96206   0.98418   0.99710
    7  C   1.19819   0.98899   0.96524   0.98589
    8  C   1.19163   0.96963   0.95592   0.99600
    9  C   1.19276   0.97660   0.94602   1.00722
   10  C   1.18301   1.00441   0.99318   0.97872
   11  H   0.92261
   12  H   0.90766
   13  H   0.94296
   14  H   0.94894
   15  H   0.96096
   16  H   0.95681
   17  H   0.96226
   18  H   0.87783
   19  H   0.88004
   20  H   0.90159
   21  H   0.88635
   22  H   0.88604
   23  H   0.92098
   24  H   0.91647
 *******************************************************************************
 ** Site#: 14399           For non-commercial use only        Version 13.159M **
 *******************************************************************************
 ** Cite this work as: MOPAC2012, James J. P. Stewart, Stewart Computational  **
 ** Chemistry, Version 13.159M web: HTTP://OpenMOPAC.net  Days remaining:   6 **
 *******************************************************************************
 **                                                                           **
 **                                MOPAC2012                                  **
 **                                                                           **
 *******************************************************************************

                            PM3 CALCULATION RESULTS


 *******************************************************************************
 *  CALCULATION DONE:                                Mon Jun  2 11:12:56 2014  *
 *  PM3      - The PM3 Hamiltonian to be used
 *  OLDGEO   - PREVIOUS GEOMETRY TO BE USED
 *  PRECISE  - CRITERIA TO BE INCREASED BY 100 TIMES
 *  NOSYM    - POINT-GROUP SYMMETRY SET TO C1
 *  T=       - A TIME OF 172800.0 SECONDS REQUESTED
 *  DUMP=N   - RESTART FILE WRITTEN EVERY  7200.000 SECONDS
 *  THERMO   - THERMODYNAMIC QUANTITIES TO BE CALCULATED
 *******************************************************************************
oldgeo thermo nosym precise  pm3

   ATOM   CHEMICAL          X               Y               Z
  NUMBER   SYMBOL      (ANGSTROMS)     (ANGSTROMS)     (ANGSTROMS)
 
     1       C         -0.39305092  *   0.07710574  *   0.02447490  *
     2       C          0.93345629  *   0.14638850  *   0.78998923  *
     3       C         -1.27041544  *  -1.04436379  *   0.59465133  *
     4       C         -2.41027785  *  -1.39973791  *  -0.33153662  *
     5       C          1.71419336  *  -1.14552952  *   0.70769981  *
     6       C          1.91036352  *   1.14662585  *   0.21835098  *
     7       C         -1.10963618  *   1.38834786  *   0.13363660  *
     8       C          2.94781421  *  -0.90342929  *   0.21643247  *
     9       C          3.07038807  *   0.52589012  *  -0.08726884  *
    10       C         -1.48150810  *   2.10173915  *  -0.92242833  *
    11       H         -0.16933404  *  -0.14995912  *  -1.04744058  *
    12       H          0.74347220  *   0.39344146  *   1.86242367  *
    13       H         -0.63389282  *  -1.93951232  *   0.77848975  *
    14       H         -1.66243145  *  -0.74862664  *   1.58808485  *
    15       H         -2.04671165  *  -1.77851560  *  -1.29616472  *
    16       H         -3.04388786  *  -0.52744298  *  -0.54202614  *
    17       H         -3.05033187  *  -2.17611810  *   0.10627778  *
    18       H          1.25941161  *  -2.09411605  *   0.99886975  *
    19       H          1.65822330  *   2.19830887  *   0.09887329  *
    20       H         -1.32237591  *   1.73132795  *   1.15403935  *
    21       H          3.74853700  *  -1.62108258  *   0.04984396  *
    22       H          3.97311584  *   0.97363741  *  -0.49789086  *
    23       H         -2.00665911  *   3.04781136  *  -0.83309552  *
    24       H         -1.28977014  *   1.79502233  *  -1.94735184  *
 


          CARTESIAN COORDINATES 

    NO.       ATOM         X         Y         Z

     1         C       -0.3931    0.0771    0.0245
     2         C        0.9335    0.1464    0.7900
     3         C       -1.2704   -1.0444    0.5947
     4         C       -2.4103   -1.3997   -0.3315
     5         C        1.7142   -1.1455    0.7077
     6         C        1.9104    1.1466    0.2184
     7         C       -1.1096    1.3883    0.1336
     8         C        2.9478   -0.9034    0.2164
     9         C        3.0704    0.5259   -0.0873
    10         C       -1.4815    2.1017   -0.9224
    11         H       -0.1693   -0.1500   -1.0474
    12         H        0.7435    0.3934    1.8624
    13         H       -0.6339   -1.9395    0.7785
    14         H       -1.6624   -0.7486    1.5881
    15         H       -2.0467   -1.7785   -1.2962
    16         H       -3.0439   -0.5274   -0.5420
    17         H       -3.0503   -2.1761    0.1063
    18         H        1.2594   -2.0941    0.9989
    19         H        1.6582    2.1983    0.0989
    20         H       -1.3224    1.7313    1.1540
    21         H        3.7485   -1.6211    0.0498
    22         H        3.9731    0.9736   -0.4979
    23         H       -2.0067    3.0478   -0.8331
    24         H       -1.2898    1.7950   -1.9474

  H: (PM3): J. J. P. STEWART, J. COMP. CHEM. 10, 209 (1989).
  C: (PM3): J. J. P. STEWART, J. COMP. CHEM. 10, 209 (1989).

           Empirical Formula: C10 H14  =    24 atoms



      MOLECULAR POINT GROUP   :   C1  


      RHF CALCULATION, NO. OF DOUBLY OCCUPIED LEVELS =   27



          HEAT OF FORMATION =      38.067783 KCALS/MOLE


          INTERNAL COORDINATE DERIVATIVES

   NUMBER  ATOM       BOND         ANGLE      DIHEDRAL

     1       C     -0.000285     0.000197     0.001585
     2       C      0.005051    -0.006804     0.008542
     3       C      0.005113    -0.002872     0.000396
     4       C     -0.002376     0.003757     0.000453
     5       C     -0.005681     0.008015    -0.005194
     6       C      0.004771    -0.001490    -0.007387
     7       C     -0.013351     0.020524    -0.004103
     8       C      0.010519    -0.018431     0.002650
     9       C      0.008459     0.007695     0.016485
    10       C     -0.014013    -0.004310     0.000584
    11       H     -0.000142     0.004570     0.004189
    12       H     -0.005829    -0.000632    -0.003139
    13       H     -0.001134    -0.006535    -0.006256
    14       H      0.001312    -0.003786    -0.001959
    15       H      0.001393    -0.002498    -0.000546
    16       H      0.001801     0.005316     0.002573
    17       H      0.004253    -0.002475     0.001343
    18       H     -0.002091     0.001458    -0.002339
    19       H     -0.001565     0.001721    -0.006502
    20       H     -0.010584    -0.000254    -0.006118
    21       H     -0.002935     0.003683     0.003416
    22       H     -0.005403     0.000688     0.000832
    23       H      0.016289    -0.000273     0.003282
    24       H      0.006430    -0.007267    -0.002786


          GRADIENT NORM =   0.05483


          TIME FOR SCF CALCULATION =    0.01

          TIME FOR DERIVATIVES     =    0.01

          MOLECULAR WEIGHT =  134.22



          ROTATIONAL CONSTANTS IN CM(-1)

          A =    0.07066445   B =    0.03169387   C =    0.02388036



           PRINCIPAL MOMENTS OF INERTIA IN UNITS OF 10**(-40)*GRAM-CM**2

          A =      396.1366   B =      883.2237   C =     1172.2090


          ORIENTATION OF MOLECULE IN FORCE CALCULATION

    NO.       ATOM         X         Y         Z

     1          C      -0.6674    0.1493   -0.2287
     2          C       0.8657    0.1493   -0.2287
     3          C      -1.1925    1.5904   -0.2287
     4          C      -2.6573    1.6607    0.1359
     5          C       1.4418    0.8567    0.9768
     6          C       1.4708   -1.2296   -0.1089
     7          C      -1.1736   -0.5761   -1.4379
     8          C       2.2748    0.0264    1.6390
     9          C       2.2938   -1.2738    0.9612
    10          C      -1.9905   -1.6204   -1.3681
    11          H      -1.0193   -0.3626    0.7013
    12          H       1.2480    0.6363   -1.1581
    13          H      -0.5904    2.1916    0.4899
    14          H      -1.0223    2.0540   -1.2207
    15          H      -2.8415    1.2854    1.1514
    16          H      -3.2712    1.0607   -0.5495
    17          H      -3.0275    2.6929    0.0948
    18          H       1.1508    1.8809    1.2170
    19          H       1.2405   -2.0256   -0.8139
    20          H      -0.8327   -0.1856   -2.4050
    21          H       2.8520    0.2418    2.5359
    22          H       2.8901   -2.1170    1.3039
    23          H      -2.3575   -2.1353   -2.2507
    24          H      -2.3502   -2.0350   -0.4300


    FIRST DERIVATIVES WILL BE USED IN THE CALCULATION OF SECOND DERIVATIVES

          ESTIMATED TIME TO COMPLETE CALCULATION =        3.33 SECONDS

    FOR POINT-GROUP C1   THERE ARE   1 UNIQUE SYMMETRY FUNCTIONS.

 STEP:   1 TIME =     0.04 SECS, INTEGRAL =      0.04 TIME LEFT: 172799.95
 STEP:   2 TIME =     0.04 SECS, INTEGRAL =      0.07 TIME LEFT: 172799.92
 STEP:   3 TIME =     0.04 SECS, INTEGRAL =      0.11 TIME LEFT: 172799.88
 STEP:   4 TIME =     0.04 SECS, INTEGRAL =      0.14 TIME LEFT: 172799.85
 STEP:   5 TIME =     0.04 SECS, INTEGRAL =      0.18 TIME LEFT: 172799.81
 STEP:   6 TIME =     0.04 SECS, INTEGRAL =      0.21 TIME LEFT: 172799.77
 STEP:   7 TIME =     0.03 SECS, INTEGRAL =      0.25 TIME LEFT: 172799.74
 STEP:   8 TIME =     0.04 SECS, INTEGRAL =      0.28 TIME LEFT: 172799.70
 STEP:   9 TIME =     0.04 SECS, INTEGRAL =      0.32 TIME LEFT: 172799.67
 STEP:  10 TIME =     0.03 SECS, INTEGRAL =      0.35 TIME LEFT: 172799.63
 STEP:  11 TIME =     0.03 SECS, INTEGRAL =      0.39 TIME LEFT: 172799.60
 STEP:  12 TIME =     0.03 SECS, INTEGRAL =      0.42 TIME LEFT: 172799.57
 STEP:  13 TIME =     0.04 SECS, INTEGRAL =      0.46 TIME LEFT: 172799.53
 STEP:  14 TIME =     0.04 SECS, INTEGRAL =      0.49 TIME LEFT: 172799.49
 STEP:  15 TIME =     0.04 SECS, INTEGRAL =      0.53 TIME LEFT: 172799.46
 STEP:  16 TIME =     0.04 SECS, INTEGRAL =      0.57 TIME LEFT: 172799.42
 STEP:  17 TIME =     0.04 SECS, INTEGRAL =      0.60 TIME LEFT: 172799.39
 STEP:  18 TIME =     0.04 SECS, INTEGRAL =      0.64 TIME LEFT: 172799.35
 STEP:  19 TIME =     0.04 SECS, INTEGRAL =      0.67 TIME LEFT: 172799.31
 STEP:  20 TIME =     0.04 SECS, INTEGRAL =      0.71 TIME LEFT: 172799.28
 STEP:  21 TIME =     0.03 SECS, INTEGRAL =      0.74 TIME LEFT: 172799.24
 STEP:  22 TIME =     0.04 SECS, INTEGRAL =      0.78 TIME LEFT: 172799.21
 STEP:  23 TIME =     0.04 SECS, INTEGRAL =      0.82 TIME LEFT: 172799.17
 STEP:  24 TIME =     0.04 SECS, INTEGRAL =      0.85 TIME LEFT: 172799.14
 STEP:  25 TIME =     0.04 SECS, INTEGRAL =      0.89 TIME LEFT: 172799.10
 STEP:  26 TIME =     0.04 SECS, INTEGRAL =      0.92 TIME LEFT: 172799.06
 STEP:  27 TIME =     0.04 SECS, INTEGRAL =      0.96 TIME LEFT: 172799.03
 STEP:  28 TIME =     0.04 SECS, INTEGRAL =      1.00 TIME LEFT: 172798.99
 STEP:  29 TIME =     0.04 SECS, INTEGRAL =      1.03 TIME LEFT: 172798.96
 STEP:  30 TIME =     0.03 SECS, INTEGRAL =      1.07 TIME LEFT: 172798.92
 STEP:  31 TIME =     0.04 SECS, INTEGRAL =      1.10 TIME LEFT: 172798.89
 STEP:  32 TIME =     0.04 SECS, INTEGRAL =      1.14 TIME LEFT: 172798.85
 STEP:  33 TIME =     0.03 SECS, INTEGRAL =      1.17 TIME LEFT: 172798.82
 STEP:  34 TIME =     0.04 SECS, INTEGRAL =      1.21 TIME LEFT: 172798.78
 STEP:  35 TIME =     0.04 SECS, INTEGRAL =      1.25 TIME LEFT: 172798.74
 STEP:  36 TIME =     0.04 SECS, INTEGRAL =      1.28 TIME LEFT: 172798.71
 STEP:  37 TIME =     0.04 SECS, INTEGRAL =      1.32 TIME LEFT: 172798.67
 STEP:  38 TIME =     0.04 SECS, INTEGRAL =      1.35 TIME LEFT: 172798.64
 STEP:  39 TIME =     0.04 SECS, INTEGRAL =      1.39 TIME LEFT: 172798.60
 STEP:  40 TIME =     0.04 SECS, INTEGRAL =      1.42 TIME LEFT: 172798.56
 STEP:  41 TIME =     0.04 SECS, INTEGRAL =      1.46 TIME LEFT: 172798.53
 STEP:  42 TIME =     0.04 SECS, INTEGRAL =      1.50 TIME LEFT: 172798.49
 STEP:  43 TIME =     0.04 SECS, INTEGRAL =      1.54 TIME LEFT: 172798.45
 STEP:  44 TIME =     0.04 SECS, INTEGRAL =      1.57 TIME LEFT: 172798.41
 STEP:  45 TIME =     0.04 SECS, INTEGRAL =      1.61 TIME LEFT: 172798.38
 STEP:  46 TIME =     0.04 SECS, INTEGRAL =      1.64 TIME LEFT: 172798.34
 STEP:  47 TIME =     0.04 SECS, INTEGRAL =      1.68 TIME LEFT: 172798.31
 STEP:  48 TIME =     0.04 SECS, INTEGRAL =      1.71 TIME LEFT: 172798.27
 STEP:  49 TIME =     0.04 SECS, INTEGRAL =      1.75 TIME LEFT: 172798.24
 STEP:  50 TIME =     0.03 SECS, INTEGRAL =      1.79 TIME LEFT: 172798.20
 STEP:  51 TIME =     0.04 SECS, INTEGRAL =      1.82 TIME LEFT: 172798.17
 STEP:  52 TIME =     0.04 SECS, INTEGRAL =      1.86 TIME LEFT: 172798.13
 STEP:  53 TIME =     0.04 SECS, INTEGRAL =      1.89 TIME LEFT: 172798.10
 STEP:  54 TIME =     0.04 SECS, INTEGRAL =      1.93 TIME LEFT: 172798.06
 STEP:  55 TIME =     0.04 SECS, INTEGRAL =      1.97 TIME LEFT: 172798.02
 STEP:  56 TIME =     0.04 SECS, INTEGRAL =      2.00 TIME LEFT: 172797.99
 STEP:  57 TIME =     0.04 SECS, INTEGRAL =      2.04 TIME LEFT: 172797.95
 STEP:  58 TIME =     0.04 SECS, INTEGRAL =      2.08 TIME LEFT: 172797.91
 STEP:  59 TIME =     0.04 SECS, INTEGRAL =      2.11 TIME LEFT: 172797.88
 STEP:  60 TIME =     0.04 SECS, INTEGRAL =      2.15 TIME LEFT: 172797.84
 STEP:  61 TIME =     0.04 SECS, INTEGRAL =      2.18 TIME LEFT: 172797.80
 STEP:  62 TIME =     0.04 SECS, INTEGRAL =      2.22 TIME LEFT: 172797.77
 STEP:  63 TIME =     0.04 SECS, INTEGRAL =      2.26 TIME LEFT: 172797.73
 STEP:  64 TIME =     0.04 SECS, INTEGRAL =      2.29 TIME LEFT: 172797.70
 STEP:  65 TIME =     0.04 SECS, INTEGRAL =      2.33 TIME LEFT: 172797.66
 STEP:  66 TIME =     0.04 SECS, INTEGRAL =      2.36 TIME LEFT: 172797.62
 STEP:  67 TIME =     0.04 SECS, INTEGRAL =      2.40 TIME LEFT: 172797.59
 STEP:  68 TIME =     0.04 SECS, INTEGRAL =      2.44 TIME LEFT: 172797.55
 STEP:  69 TIME =     0.03 SECS, INTEGRAL =      2.47 TIME LEFT: 172797.52
 STEP:  70 TIME =     0.04 SECS, INTEGRAL =      2.51 TIME LEFT: 172797.48
 STEP:  71 TIME =     0.04 SECS, INTEGRAL =      2.55 TIME LEFT: 172797.44
 STEP:  72 TIME =     0.03 SECS, INTEGRAL =      2.58 TIME LEFT: 172797.41

(To convert to Hartree/Bohr^2, multiply by (10^(-21) x N x a0^2)/(4.184 x 627.51) = 0.0642)


           FORCE MATRIX IN MILLIDYNES/ANGSTROM


                  C  1       C  2       C  3       C  4       C  5       C  6
 ------------------------------------------------------------------------------
     C    1  14.467878
     C    2   3.662636  14.806166
     C    3   3.726315   0.633738  14.214289
     C    4   0.628335   0.052698   4.494895  14.389456
     C    5   0.589438   4.098437   0.091255   0.007292  17.942440
     C    6   0.567856   4.143824   0.048501   0.009819   1.100861  17.905321
     C    7   4.629832   0.686167   0.687800   0.044004   0.046353   0.050397
     C    8   0.047419   1.203103   0.011008   0.001931   9.820904   1.570327
     C    9   0.048805   1.208083   0.010505   0.002316   1.580631   9.776742
     C   10   0.800703   0.040811   0.038776   0.013958   0.008775   0.012456
     H   11   4.202645   0.421955   0.426194   0.039850   0.016968   0.016666
     H   12   0.450006   4.208903   0.021394   0.001887   0.386687   0.386116
     H   13   0.442480   0.061548   4.280953   0.436673   0.109651   0.001987
     H   14   0.450571   0.016087   4.451776   0.438640   0.004700   0.001166
     H   15   0.022594   0.001648   0.463845   4.724030   0.001084   0.000997
     H   16   0.022630   0.001961   0.464957   4.716903   0.001269   0.001041
     H   17   0.049772   0.009101   0.449228   4.755924   0.001134   0.002064
     H   18   0.012156   0.408665   0.052803   0.002993   4.951919   0.043054
     H   19   0.011159   0.406762   0.002102   0.000748   0.042046   5.070967
     H   20   0.435805   0.021199   0.019059   0.002611   0.002365   0.004363
     H   21   0.015623   0.113116   0.000870   0.000332   0.446901   0.049540
     H   22   0.015270   0.112438   0.002528   0.000683   0.048966   0.446438
     H   23   0.135054   0.018770   0.019133   0.000729   0.002722   0.001223
     H   24   0.096111   0.011391   0.011815   0.000858   0.002665   0.002139


                  C  7       C  8       C  9       C 10       H 11       H 12
 ------------------------------------------------------------------------------
     C    7  18.138167
     C    8   0.009456  18.338082
     C    9   0.010510   5.135497  18.308290
     C   10  11.098380   0.002005   0.002270  18.041633
     H   11   0.442861   0.005236   0.004962   0.052731   4.677304
     H   12   0.028957   0.050992   0.051581   0.002460   0.040372   4.695348
     H   13   0.047796   0.001343   0.000918   0.006773   0.019187   0.003110
     H   14   0.041101   0.000860   0.000656   0.002476   0.041047   0.009571
     H   15   0.001979   0.000353   0.000615   0.001101   0.024479   0.000417
     H   16   0.008247   0.000273   0.000316   0.008278   0.002744   0.000468
     H   17   0.002497   0.000356   0.000727   0.000926   0.002314   0.000537
     H   18   0.003378   0.440013   0.099756   0.000831   0.002470   0.011372
     H   19   0.009666   0.100469   0.441567   0.006221   0.002356   0.011094
     H   20   4.773436   0.001133   0.002048   0.453940   0.036493   0.018990
     H   21   0.002410   5.072430   0.418817   0.000884   0.000621   0.014315
     H   22   0.001138   0.419295   5.071470   0.000619   0.000716   0.014428
     H   23   0.461766   0.000975   0.001126   5.104737   0.002075   0.000700
     H   24   0.490533   0.001005   0.001042   5.069919   0.029720   0.000548


                  H 13       H 14       H 15       H 16       H 17       H 18
 ------------------------------------------------------------------------------
     H   13   4.879889
     H   14   0.557971   5.068067
     H   15   0.026117   0.047884   5.465679
     H   16   0.047169   0.022614   0.574315   5.449439
     H   17   0.028008   0.031487   0.572598   0.565998   5.489086
     H   18   0.090689   0.001034   0.000602   0.000891   0.000604   5.356268
     H   19   0.000851   0.000568   0.000222   0.000326   0.000167   0.010138
     H   20   0.001658   0.021265   0.000483   0.000993   0.000561   0.001177
     H   21   0.000709   0.000152   0.000205   0.000096   0.000147   0.041179
     H   22   0.000360   0.000165   0.000138   0.000148   0.000173   0.004998
     H   23   0.003150   0.000778   0.000248   0.000550   0.000237   0.000470
     H   24   0.002274   0.000750   0.000451   0.001127   0.000410   0.000346


                  H 19       H 20       H 21       H 22       H 23       H 24
 ------------------------------------------------------------------------------
     H   19   5.468091
     H   20   0.001869   5.151053
     H   21   0.005395   0.000274   5.462119
     H   22   0.041369   0.000473   0.009453   5.462051
     H   23   0.001313   0.079078   0.000298   0.000252   5.491703
     H   24   0.001639   0.117183   0.000244   0.000341   0.420916   5.463051


          HEAT OF FORMATION =      38.067783 KCALS/MOLE

          ZERO POINT ENERGY     131.240 KCAL/MOL


           NORMAL COORDINATE ANALYSIS (Total motion = 1 Angstrom)


   Root No.       1         2         3         4         5         6         7         8

                 1 A       2 A       3 A       4 A       5 A       6 A       7 A       8 A   

                  64.2      78.2     100.8     147.4     174.9     204.6     269.7     344.9
  
           1    0.0030   -0.0085   -0.0076   -0.0238    0.0035   -0.0029    0.0047   -0.0015
           2   -0.0128    0.0106   -0.0019   -0.0141   -0.0122    0.0078    0.0182    0.0125
           3   -0.0124   -0.0079    0.0143    0.0047   -0.0058   -0.0012   -0.0221   -0.0202
           4    0.0030   -0.0081   -0.0075   -0.0238    0.0045   -0.0034    0.0019   -0.0086
           5   -0.0171   -0.0013   -0.0135   -0.0189   -0.0068    0.0088   -0.0125   -0.0136
           6   -0.0088   -0.0085    0.0049    0.0272   -0.0154    0.0124    0.0067   -0.0074
           7    0.0025    0.0008    0.0009    0.0010    0.0179   -0.0159   -0.0006    0.0065
           8   -0.0125    0.0138    0.0008   -0.0032   -0.0062    0.0024    0.0166    0.0137
           9    0.0018   -0.0056    0.0377   -0.0130    0.0148   -0.0216   -0.0286    0.0248
          10    0.0129    0.0123   -0.0165    0.0081    0.0160   -0.0100    0.0019    0.0007
          11   -0.0145    0.0267   -0.0017    0.0433    0.0124   -0.0015   -0.0323   -0.0008
          12    0.0439    0.0384   -0.0315    0.0032   -0.0011    0.0057   -0.0026    0.0059
          13    0.0040   -0.0030    0.0156   -0.0271   -0.0195    0.0127   -0.0109   -0.0319
          14    0.0126    0.0023    0.0036   -0.0144   -0.0004    0.0020   -0.0146   -0.0095
          15   -0.0267   -0.0132   -0.0166    0.0262   -0.0067    0.0082    0.0153   -0.0034
          16   -0.0023   -0.0216   -0.0163    0.0065    0.0250   -0.0188    0.0026   -0.0169
          17   -0.0163   -0.0064   -0.0162   -0.0059    0.0030    0.0015   -0.0131   -0.0170
          18    0.0293    0.0029    0.0210    0.0124   -0.0117    0.0082    0.0167    0.0056
          19    0.0028   -0.0066   -0.0128   -0.0077   -0.0177    0.0214   -0.0288    0.0344
          20    0.0029    0.0090    0.0206   -0.0099   -0.0028   -0.0123    0.0329   -0.0046
          21   -0.0219   -0.0078    0.0025   -0.0050   -0.0015    0.0003   -0.0163   -0.0224
          22    0.0007   -0.0136    0.0257    0.0228   -0.0268    0.0198    0.0096   -0.0107
          23    0.0279   -0.0013    0.0118    0.0100    0.0071   -0.0039   -0.0023    0.0060
          24   -0.0036   -0.0045   -0.0187   -0.0060    0.0106   -0.0069    0.0053   -0.0125
          25   -0.0035   -0.0253    0.0048    0.0462    0.0053   -0.0043    0.0227    0.0067
          26    0.0096   -0.0067   -0.0010    0.0160    0.0109   -0.0059   -0.0003    0.0053
          27    0.0314    0.0056    0.0055   -0.0166    0.0041   -0.0036    0.0026   -0.0116
          28   -0.0229    0.0658    0.0143   -0.0064   -0.0107    0.0028    0.0006    0.0177
          29    0.0220   -0.0473   -0.0016   -0.0124   -0.0079    0.0023    0.0121    0.0118
          30   -0.0372   -0.0050   -0.0147   -0.0271    0.0084    0.0000    0.0208    0.0276
          31    0.0009   -0.0111   -0.0087   -0.0460    0.0125   -0.0086   -0.0043   -0.0128
          32   -0.0228    0.0124   -0.0139   -0.0072   -0.0177    0.0141    0.0241    0.0038
          33   -0.0187   -0.0078    0.0071   -0.0007   -0.0052    0.0004   -0.0210   -0.0274
          34    0.0072   -0.0044   -0.0115   -0.0192   -0.0009    0.0029    0.0266    0.0133
          35   -0.0425   -0.0118   -0.0328   -0.0101   -0.0017    0.0075   -0.0195   -0.0242
          36   -0.0204   -0.0123   -0.0072    0.0322   -0.0145    0.0139    0.0130   -0.0044
          37    0.0211    0.0247   -0.0272    0.0215    0.0171   -0.0079    0.0001   -0.0034
          38   -0.0102    0.0164   -0.0260   -0.0029   -0.0270    0.0171    0.0304   -0.0195
          39   -0.0150   -0.0275    0.0833   -0.0291    0.0347   -0.0414   -0.0419    0.0629
          40   -0.0258   -0.0255    0.0502    0.0007    0.0374   -0.0384   -0.0282    0.0265
          41   -0.0124    0.0056    0.0311   -0.0235    0.0112   -0.0119    0.0150    0.0539
          42   -0.0029   -0.0139    0.0601   -0.0227    0.0262   -0.0319   -0.0337    0.0480
          43    0.0423    0.0389   -0.0691    0.0107   -0.0168   -0.0105    0.0304   -0.0085
          44   -0.0155    0.0254   -0.0368    0.0704   -0.0975   -0.1349   -0.0667    0.0052
          45    0.0489    0.0428   -0.0540    0.0136   -0.0475   -0.0432   -0.0098    0.0065
          46   -0.0062   -0.0144    0.0131   -0.0175    0.0012   -0.0387    0.0093    0.0190
          47   -0.0146    0.0356    0.0271    0.0462    0.1191    0.1137   -0.0334   -0.0156
          48    0.0611    0.0550   -0.0833    0.0239   -0.0807   -0.0689   -0.0088    0.0025
          49    0.0106    0.0212   -0.0070    0.0361    0.0612    0.0232   -0.0315   -0.0132
          50   -0.0149    0.0305    0.0024    0.0528    0.0332    0.0163   -0.0433   -0.0064
          51    0.0555    0.0530   -0.0129   -0.0141    0.1132    0.1532    0.0327   -0.0079
          52    0.0038    0.0064    0.0227   -0.0615   -0.0405    0.0276   -0.0298   -0.0698
          53    0.0192    0.0072    0.0077   -0.0274   -0.0045    0.0044   -0.0219   -0.0213
          54   -0.0534   -0.0223   -0.0258    0.0423   -0.0109    0.0131    0.0239    0.0055
          55   -0.0038   -0.0278   -0.0358    0.0048    0.0541   -0.0413   -0.0021   -0.0305
          56   -0.0345   -0.0091   -0.0283   -0.0115    0.0029    0.0024   -0.0206   -0.0282
          57    0.0503    0.0080    0.0410    0.0194   -0.0210    0.0143    0.0268    0.0228
          58    0.0237   -0.0629   -0.0378    0.0055   -0.0413    0.0576   -0.0963    0.0874
          59   -0.0008    0.0526    0.0559   -0.0036    0.0078   -0.0410    0.0637   -0.0655
          60   -0.0161   -0.0101    0.0079    0.0020   -0.0053    0.0014   -0.0270   -0.0270
          61    0.0001   -0.0139    0.0446    0.0414   -0.0513    0.0390    0.0126   -0.0124
          62    0.0501   -0.0004    0.0255    0.0227    0.0103   -0.0072    0.0043    0.0153
          63   -0.0085   -0.0045   -0.0341   -0.0210    0.0255   -0.0185    0.0019   -0.0138
          64   -0.0068   -0.0348    0.0063    0.0858    0.0123   -0.0100    0.0410    0.0289
          65    0.0168   -0.0102    0.0019    0.0337    0.0187   -0.0124    0.0088    0.0186
          66    0.0548    0.0136    0.0098   -0.0419    0.0111   -0.0097   -0.0069   -0.0175
          67   -0.0244    0.0736    0.0144    0.0095   -0.0280    0.0215   -0.0478    0.0407
          68    0.0351   -0.0536    0.0137   -0.0052   -0.0030   -0.0125    0.0149   -0.0592
          69   -0.0441   -0.0046   -0.0238   -0.0380    0.0127    0.0009    0.0396    0.0602
          70   -0.0444    0.1232    0.0384   -0.0207    0.0127   -0.0333    0.0762   -0.0225
          71    0.0262   -0.0922   -0.0368   -0.0218   -0.0178    0.0309   -0.0109    0.0985
          72   -0.0435   -0.0028   -0.0210   -0.0369    0.0131   -0.0012    0.0400    0.0513


   Root No.       9        10        11        12        13        14        15        16

                 9 A      10 A      11 A      12 A      13 A      14 A      15 A      16 A   

                 371.7     397.4     481.0     510.5     551.6     655.6     763.8     811.9
  
           1   -0.0005   -0.0035   -0.0101   -0.0075    0.0378    0.0053    0.0250    0.0022
           2   -0.0100    0.0125    0.0325    0.0077    0.0135   -0.0081    0.0061   -0.0020
           3   -0.0073    0.0407   -0.0264    0.0035   -0.0095    0.0048   -0.0123    0.0002
           4   -0.0109   -0.0101    0.0026   -0.0053    0.0385    0.0162    0.0120    0.0015
           5    0.0249   -0.0161    0.0014   -0.0120    0.0131    0.0103   -0.0093    0.0056
           6    0.0133   -0.0044   -0.0026   -0.0012   -0.0303   -0.0177    0.0171    0.0053
           7    0.0442    0.0146    0.0022    0.0001   -0.0106   -0.0005   -0.0012    0.0019
           8   -0.0011    0.0200    0.0457    0.0161    0.0017   -0.0274   -0.0093    0.0056
           9    0.0045   -0.0131    0.0098   -0.0013    0.0034   -0.0013    0.0009    0.0073
          10    0.0479    0.0164   -0.0044   -0.0015   -0.0153    0.0029   -0.0034   -0.0001
          11   -0.0290   -0.0216   -0.0029   -0.0020    0.0103   -0.0031   -0.0004    0.0021
          12   -0.0048   -0.0050    0.0057    0.0006    0.0028   -0.0031    0.0006    0.0016
          13   -0.0130   -0.0174    0.0213   -0.0285   -0.0244    0.0014   -0.0123   -0.0309
          14    0.0139   -0.0021   -0.0036   -0.0175   -0.0095   -0.0039    0.0168    0.0011
          15    0.0255   -0.0168   -0.0032    0.0091    0.0119    0.0050    0.0158    0.0115
          16   -0.0382   -0.0047    0.0126    0.0392   -0.0135   -0.0031   -0.0129    0.0304
          17    0.0211   -0.0142    0.0023    0.0015   -0.0101    0.0049   -0.0227    0.0036
          18    0.0012   -0.0051    0.0076   -0.0223    0.0094    0.0047   -0.0044   -0.0090
          19   -0.0125    0.0085   -0.0259   -0.0031    0.0037   -0.0414   -0.0071   -0.0006
          20   -0.0145    0.0094   -0.0232    0.0048   -0.0155    0.0362    0.0040   -0.0007
          21   -0.0037    0.0445    0.0044    0.0071    0.0275   -0.0002    0.0080   -0.0019
          22    0.0119   -0.0240    0.0027    0.0314    0.0068    0.0069   -0.0174   -0.0300
          23    0.0106    0.0021   -0.0092    0.0148    0.0050   -0.0005    0.0034   -0.0109
          24   -0.0104   -0.0059    0.0158   -0.0271   -0.0105    0.0035   -0.0005   -0.0074
          25   -0.0241    0.0061    0.0155   -0.0307    0.0027    0.0046   -0.0184    0.0275
          26    0.0098    0.0051   -0.0024   -0.0167    0.0003    0.0027   -0.0007   -0.0102
          27   -0.0117   -0.0128    0.0068    0.0321   -0.0029   -0.0008   -0.0030   -0.0075
          28   -0.0129    0.0092   -0.0201    0.0026   -0.0089    0.0047   -0.0015   -0.0007
          29   -0.0162    0.0079   -0.0338    0.0004   -0.0089    0.0015   -0.0011   -0.0014
          30   -0.0078   -0.0119   -0.0186    0.0000   -0.0096    0.0012    0.0017   -0.0009
          31   -0.0050   -0.0048   -0.0152   -0.0143    0.0813    0.0414    0.0405    0.0030
          32   -0.0130    0.0392    0.0488    0.0174    0.0200   -0.0305    0.0022   -0.0067
          33   -0.0098    0.0540   -0.0189    0.0061    0.0107    0.0057   -0.0076   -0.0024
          34   -0.0030   -0.0247    0.0155   -0.0107    0.0746    0.0165    0.0770    0.0030
          35    0.0428   -0.0299   -0.0106    0.0248    0.0070    0.0136   -0.0226    0.0542
          36    0.0256   -0.0180   -0.0036    0.0155   -0.0162   -0.0144    0.0366    0.0315
          37    0.0395    0.0152   -0.0081   -0.0001   -0.0182    0.0066   -0.0121    0.0041
          38   -0.0186    0.0534    0.0130    0.0170    0.0022   -0.0039   -0.0047    0.0300
          39    0.0247   -0.0424    0.0455   -0.0016    0.0107   -0.0275    0.0053   -0.0189
          40    0.0634   -0.0005    0.0105   -0.0029   -0.0180   -0.0119   -0.0064   -0.0189
          41    0.0151   -0.0160    0.0909    0.0161    0.0137   -0.0582    0.0004   -0.0136
          42    0.0157   -0.0325    0.0343   -0.0014    0.0080   -0.0194    0.0043   -0.0062
          43    0.0535    0.0340    0.0069    0.0056   -0.0226   -0.0098   -0.0126   -0.0182
          44   -0.0406   -0.0515   -0.0201   -0.0115    0.0197    0.0111    0.0127   -0.0027
          45   -0.0076   -0.0124    0.0019   -0.0014    0.0045   -0.0007    0.0034   -0.0039
          46    0.0693    0.0341    0.0269    0.0088   -0.0236   -0.0154   -0.0196    0.0208
          47   -0.0440   -0.0285   -0.0270   -0.0095    0.0161    0.0127    0.0119   -0.0028
          48   -0.0116   -0.0156   -0.0018   -0.0023    0.0057   -0.0003    0.0051   -0.0137
          49    0.0208   -0.0186   -0.0528   -0.0202   -0.0017    0.0380    0.0226   -0.0107
          50   -0.0394   -0.0339   -0.0205   -0.0088    0.0156    0.0095    0.0094   -0.0020
          51   -0.0011    0.0201    0.0128    0.0071   -0.0041   -0.0127   -0.0067   -0.0051
          52   -0.0215   -0.0316    0.0459   -0.0720   -0.1119   -0.0336    0.0778    0.1708
          53    0.0070   -0.0033    0.0047   -0.0330   -0.0451   -0.0201    0.0580    0.0823
          54    0.0457   -0.0263   -0.0103    0.0260    0.0627    0.0329   -0.0550   -0.0985
          55   -0.0779    0.0013    0.0270    0.1098   -0.0803   -0.0503    0.0817   -0.1619
          56    0.0239   -0.0182    0.0020    0.0180   -0.0350   -0.0145    0.0203   -0.0555
          57    0.0107   -0.0025    0.0034   -0.0635    0.0591    0.0419   -0.0840    0.1206
          58   -0.0217    0.0436    0.0091    0.0186   -0.0244    0.0054   -0.0203   -0.0017
          59   -0.0113    0.0130   -0.0698   -0.0080   -0.0019    0.0050   -0.0009   -0.0008
          60   -0.0057    0.0567   -0.0028    0.0094    0.0217    0.0035    0.0010   -0.0022
          61    0.0474   -0.0462   -0.0167    0.1183   -0.0009   -0.0157    0.1010    0.0634
          62    0.0033    0.0038   -0.0140    0.0628    0.0049   -0.0114    0.0292    0.0425
          63   -0.0316    0.0077    0.0296   -0.0947   -0.0056    0.0209   -0.0829   -0.0808
          64   -0.0410    0.0339    0.0281   -0.1142   -0.0214   -0.0203    0.1029   -0.0636
          65   -0.0040    0.0217    0.0011   -0.0459   -0.0075   -0.0102    0.0562   -0.0373
          66   -0.0171   -0.0206   -0.0059    0.1060    0.0198    0.0110   -0.0742    0.0854
          67   -0.0178    0.0631    0.0622    0.0405   -0.0324    0.2063    0.0481   -0.0037
          68   -0.0072    0.0288   -0.0645   -0.0191    0.0672   -0.1553   -0.0083   -0.0046
          69   -0.0114   -0.0469   -0.0365   -0.0044   -0.0455    0.0091   -0.0154    0.0021
          70   -0.0088   -0.0422   -0.0944   -0.0274   -0.0008   -0.1230   -0.0365   -0.0005
          71   -0.0269   -0.0136   -0.0159    0.0143   -0.0751    0.1029   -0.0063    0.0024
          72   -0.0110   -0.0421   -0.0398   -0.0055   -0.0371   -0.0030   -0.0148    0.0011


   Root No.      17        18        19        20        21        22        23        24

                17 A      18 A      19 A      20 A      21 A      22 A      23 A      24 A   

                 824.8     827.2     829.5     911.5     934.4     961.3     970.6     980.5
  
           1    0.0061    0.0061   -0.0056   -0.0027   -0.0059   -0.0073   -0.0040   -0.0017
           2   -0.0008    0.0006    0.0007    0.0139    0.0063   -0.0114    0.0211    0.0080
           3    0.0016   -0.0039   -0.0045   -0.0260    0.0064   -0.0048    0.0014   -0.0003
           4    0.0070    0.0079   -0.0061   -0.0150    0.0073    0.0038   -0.0015   -0.0022
           5   -0.0333   -0.0149   -0.0073   -0.0038    0.0027   -0.0004   -0.0033    0.0049
           6    0.0028    0.0421   -0.0116    0.0077   -0.0047    0.0031    0.0057   -0.0003
           7    0.0035   -0.0029   -0.0058    0.0007   -0.0003   -0.0005    0.0001   -0.0006
           8    0.0108   -0.0013   -0.0106   -0.0159   -0.0047    0.0025   -0.0066   -0.0011
           9    0.0155   -0.0135   -0.0256    0.0049    0.0006   -0.0026   -0.0019   -0.0004
          10   -0.0057   -0.0044   -0.0003    0.0084    0.0016   -0.0030    0.0079    0.0052
          11    0.0046   -0.0009   -0.0049   -0.0123   -0.0051    0.0093   -0.0226   -0.0105
          12    0.0056   -0.0024   -0.0072    0.0057   -0.0037    0.0011    0.0048    0.0016
          13    0.0155    0.0087    0.0006   -0.0020    0.0014    0.0189    0.0135   -0.0097
          14   -0.0132    0.0471   -0.0232   -0.0069    0.0072    0.0155    0.0095   -0.0131
          15    0.0174    0.0090    0.0013   -0.0047    0.0051   -0.0064   -0.0069    0.0010
          16   -0.0068    0.0133   -0.0012   -0.0018    0.0022    0.0199    0.0100    0.0118
          17   -0.0246   -0.0295    0.0050    0.0085   -0.0082   -0.0029    0.0043   -0.0115
          18   -0.0434   -0.0190   -0.0107    0.0035   -0.0025   -0.0159   -0.0072   -0.0124
          19   -0.0009   -0.0035    0.0033   -0.0001   -0.0367    0.0005    0.0007    0.0001
          20   -0.0033    0.0016    0.0046    0.0078    0.0260    0.0041   -0.0041   -0.0017
          21   -0.0074    0.0015    0.0131    0.0080   -0.0021   -0.0036    0.0040    0.0032
          22    0.0225   -0.0057    0.0072    0.0057   -0.0027   -0.0117   -0.0144    0.0225
          23    0.0219    0.0099    0.0026    0.0007   -0.0004   -0.0038   -0.0057    0.0106
          24    0.0432   -0.0268    0.0249   -0.0030   -0.0009    0.0074    0.0115   -0.0196
          25   -0.0264    0.0040   -0.0053    0.0072   -0.0016   -0.0171   -0.0003   -0.0241
          26    0.0515   -0.0048    0.0199    0.0014    0.0001   -0.0081   -0.0019   -0.0077
          27   -0.0242   -0.0169   -0.0039   -0.0025    0.0000    0.0117   -0.0002    0.0203
          28   -0.0023   -0.0017    0.0050    0.0048   -0.0121    0.0020    0.0002    0.0008
          29   -0.0041   -0.0008    0.0070    0.0090    0.0053    0.0056   -0.0060   -0.0032
          30   -0.0041    0.0014    0.0073    0.0251   -0.0092    0.0174   -0.0143   -0.0065
          31   -0.0031   -0.0254   -0.0088   -0.0373    0.0150   -0.0394   -0.0339   -0.0074
          32   -0.0018    0.0118    0.0202    0.0071    0.0061   -0.0389    0.0864    0.0352
          33   -0.0029   -0.0090    0.0060   -0.0414    0.0141   -0.0324    0.0267    0.0127
          34    0.0185    0.0307   -0.0135    0.0019    0.0255   -0.0363   -0.0121   -0.0150
          35   -0.0141   -0.0250    0.0110   -0.0059    0.0043    0.0300   -0.0456    0.1559
          36    0.0179    0.0463   -0.0055    0.0122    0.0041    0.0028   -0.0211    0.0736
          37    0.0429   -0.0349   -0.0573    0.0309   -0.0185    0.0226   -0.0001   -0.0084
          38    0.0546   -0.0368   -0.0887   -0.0194    0.0041   -0.0162   -0.0127    0.0015
          39   -0.0576    0.0460    0.0878   -0.0177    0.0087   -0.0057    0.0065    0.0040
          40   -0.0663    0.0455    0.0959   -0.0567    0.0236   -0.0004   -0.0351   -0.0169
          41   -0.0401    0.0462    0.0772   -0.0045   -0.0201    0.0007    0.0293    0.0175
          42   -0.0221    0.0192    0.0362   -0.0014   -0.0022   -0.0030    0.0083    0.0049
          43   -0.0653    0.0433    0.0933   -0.0796    0.0213    0.0104   -0.0750   -0.0307
          44   -0.0055    0.0041    0.0073    0.0221    0.0050   -0.0162    0.0365    0.0173
          45   -0.0106    0.0095    0.0170    0.0002    0.0041   -0.0056    0.0098    0.0045
          46    0.0527   -0.0474   -0.0875    0.0142   -0.0301    0.0315   -0.0336   -0.0158
          47   -0.0067    0.0052    0.0093    0.0176    0.0070   -0.0166    0.0332    0.0158
          48   -0.0397    0.0330    0.0627   -0.0264    0.0156   -0.0087   -0.0055   -0.0019
          49   -0.0297    0.0043    0.0265    0.0805    0.0275   -0.0581    0.1314    0.0637
          50   -0.0051    0.0033    0.0063    0.0130    0.0046   -0.0112    0.0221    0.0108
          51   -0.0180    0.0190    0.0322   -0.0429    0.0026    0.0123   -0.0442   -0.0204
          52    0.0032   -0.0454    0.0427    0.0150    0.0048   -0.0872   -0.0702    0.0516
          53   -0.0001    0.0244   -0.0012    0.0022    0.0045   -0.0271   -0.0226    0.0098
          54   -0.0530    0.0449   -0.0460   -0.0232    0.0199    0.0534    0.0330   -0.0252
          55   -0.0331   -0.0314   -0.0267    0.0133    0.0060   -0.0857   -0.0452   -0.0288
          56   -0.0768   -0.0255   -0.0269    0.0183   -0.0198   -0.0451   -0.0070   -0.0498
          57    0.0227   -0.0097    0.0334   -0.0122    0.0096    0.0659    0.0232    0.0445
          58    0.0031   -0.0201    0.0013    0.0097    0.2738   -0.0028   -0.0079   -0.0021
          59   -0.0107    0.0095    0.0131   -0.0558   -0.1949   -0.0242    0.0256    0.0179
          60   -0.0088   -0.0010    0.0155   -0.0150    0.0185   -0.0163    0.0129    0.0105
          61    0.0254   -0.1032    0.0445   -0.0415    0.0142    0.0660    0.0718   -0.1116
          62   -0.0248   -0.0740    0.0223   -0.0027   -0.0108    0.0033    0.0180   -0.0129
          63    0.0536    0.0559   -0.0035    0.0280   -0.0091   -0.0441   -0.0496    0.0721
          64   -0.0874   -0.0788   -0.0261   -0.0436    0.0136    0.0926    0.0043    0.1182
          65    0.0270   -0.0181    0.0047   -0.0247    0.0131    0.0441   -0.0014    0.0676
          66    0.0191    0.0950   -0.0063    0.0212    0.0061   -0.0499   -0.0070   -0.0411
          67   -0.0193    0.0218    0.0282    0.0717   -0.0208    0.0500   -0.0522   -0.0264
          68   -0.0147   -0.0092    0.0328    0.1034   -0.0368    0.0544   -0.0346   -0.0145
          69    0.0091   -0.0038   -0.0173   -0.0597    0.0196   -0.0321    0.0251    0.0119
          70    0.0098   -0.0195   -0.0150   -0.0394    0.2035   -0.0302    0.0143    0.0037
          71    0.0068    0.0009   -0.0146   -0.1015   -0.1143   -0.0578    0.0543    0.0286
          72    0.0059   -0.0048   -0.0109   -0.0439    0.0216   -0.0245    0.0190    0.0093


   Root No.      25        26        27        28        29        30        31        32

                25 A      26 A      27 A      28 A      29 A      30 A      31 A      32 A   

                 991.4    1023.8    1027.7    1036.4    1073.4    1086.1    1099.7    1112.2
  
           1   -0.0141   -0.0021   -0.0005    0.0123   -0.0008   -0.0060   -0.0335    0.0219
           2    0.0029   -0.0035   -0.0071    0.0072    0.0005    0.0008    0.0128    0.0032
           3   -0.0003   -0.0018   -0.0025    0.0044   -0.0010    0.0033   -0.0022   -0.0131
           4   -0.0068    0.0014   -0.0002   -0.0070   -0.0016    0.0084   -0.0033   -0.0366
           5    0.0142    0.0110   -0.0033   -0.0006   -0.0001    0.0059    0.0053   -0.0108
           6   -0.0324    0.0015   -0.0054    0.0050    0.0059   -0.0072   -0.0040    0.0219
           7   -0.0020   -0.0041   -0.0026    0.0061   -0.0026    0.0013   -0.0033   -0.0243
           8   -0.0014   -0.0039   -0.0041    0.0134   -0.0061    0.0012   -0.0106   -0.0024
           9    0.0014   -0.0096   -0.0140    0.0197   -0.0049    0.0012    0.0150    0.0065
          10    0.0075    0.0035    0.0012   -0.0031    0.0035   -0.0016    0.0045    0.0230
          11   -0.0043    0.0041    0.0057   -0.0118    0.0054   -0.0025    0.0006    0.0086
          12    0.0002    0.0063    0.0108   -0.0129    0.0052   -0.0014   -0.0071   -0.0127
          13   -0.0008    0.0151   -0.0090    0.0027    0.0064   -0.0033    0.0039    0.0053
          14    0.0145   -0.0035    0.0035   -0.0048   -0.0166   -0.0137   -0.0078   -0.0084
          15    0.0226   -0.0163    0.0116   -0.0059   -0.0078    0.0032   -0.0157   -0.0164
          16   -0.0024   -0.0175    0.0063   -0.0005   -0.0007   -0.0042    0.0046    0.0057
          17   -0.0249   -0.0225    0.0093   -0.0022   -0.0102   -0.0032    0.0155    0.0169
          18    0.0034    0.0088   -0.0014   -0.0021   -0.0166    0.0000   -0.0029   -0.0030
          19    0.0034    0.0057    0.0143    0.0163   -0.0015    0.0008    0.0099   -0.0025
          20   -0.0008   -0.0044   -0.0103   -0.0139    0.0012   -0.0002   -0.0080    0.0010
          21   -0.0018    0.0051    0.0076   -0.0113    0.0016   -0.0029    0.0047    0.0098
          22   -0.0048   -0.0155    0.0072   -0.0021   -0.0016    0.0061   -0.0042   -0.0041
          23   -0.0094   -0.0065    0.0019   -0.0008    0.0041   -0.0038   -0.0108   -0.0099
          24   -0.0092    0.0097   -0.0069    0.0023    0.0037    0.0004   -0.0088   -0.0059
          25   -0.0001    0.0169   -0.0070   -0.0005   -0.0034    0.0030   -0.0049   -0.0053
          26    0.0169    0.0066   -0.0016    0.0024    0.0030    0.0034    0.0126    0.0115
          27   -0.0020   -0.0115    0.0047   -0.0002   -0.0005    0.0049    0.0036    0.0045
          28    0.0075   -0.0113   -0.0238   -0.0237    0.0009   -0.0004   -0.0060    0.0014
          29   -0.0016    0.0092    0.0213    0.0143   -0.0003    0.0005    0.0044   -0.0010
          30    0.0051   -0.0025   -0.0039    0.0020   -0.0004    0.0015    0.0011   -0.0058
          31   -0.0091   -0.0029   -0.0101    0.0007    0.0011   -0.0241   -0.0553    0.1956
          32    0.0004    0.0143    0.0373   -0.0271    0.0046    0.0037    0.0085   -0.0712
          33   -0.0004    0.0078    0.0186   -0.0195    0.0024   -0.0023   -0.0114    0.0127
          34   -0.0792   -0.0124   -0.0084   -0.0547    0.0432   -0.0346    0.2712   -0.0155
          35   -0.0121    0.1820   -0.0788    0.0147   -0.0656   -0.0206   -0.0341   -0.0228
          36   -0.0739    0.0855   -0.0482   -0.0071   -0.0100   -0.0392    0.0885    0.0233
          37   -0.0116    0.0250    0.0285   -0.0535   -0.0157    0.0135    0.0120   -0.0342
          38    0.0055   -0.0502   -0.0636    0.1086   -0.0139   -0.0031    0.0060   -0.0031
          39    0.0001    0.0067    0.0102   -0.0121    0.0078   -0.0036   -0.0123    0.0141
          40   -0.0067   -0.0209   -0.0228    0.0180    0.0057    0.0036    0.0327   -0.1189
          41   -0.0041    0.0405    0.0594   -0.0599   -0.0014   -0.0025   -0.0848    0.0573
          42   -0.0013    0.0087    0.0131   -0.0137   -0.0010   -0.0002   -0.0141    0.0184
          43   -0.0076   -0.0289   -0.0513    0.0488   -0.0133    0.0022    0.0469    0.0739
          44    0.0045   -0.0049   -0.0049    0.0166   -0.0070    0.0020   -0.0114   -0.0087
          45    0.0004   -0.0037   -0.0037    0.0081   -0.0026    0.0011   -0.0028   -0.0109
          46    0.0054    0.0459    0.0598   -0.0940    0.0385   -0.0128   -0.0018    0.0392
          47    0.0038   -0.0089   -0.0105    0.0235   -0.0086    0.0024   -0.0089   -0.0100
          48   -0.0048   -0.0222   -0.0301    0.0416   -0.0150    0.0048    0.0075   -0.0104
          49    0.0293   -0.0176   -0.0280    0.0609   -0.0219    0.0074   -0.0055    0.0078
          50    0.0033   -0.0045   -0.0060    0.0135   -0.0045    0.0009   -0.0038    0.0033
          51   -0.0101   -0.0079   -0.0105    0.0074   -0.0012    0.0004    0.0112   -0.0022
          52    0.1155   -0.0437    0.0346    0.0009    0.1246   -0.0295    0.0033   -0.0057
          53    0.0122   -0.0233    0.0183   -0.0149   -0.0366    0.0008   -0.0186   -0.0241
          54    0.1571    0.0027   -0.0012    0.0307    0.1996   -0.0878    0.0246    0.0306
          55    0.1210    0.0644   -0.0117   -0.0026   -0.0973   -0.1323    0.0284   -0.0036
          56   -0.1024   -0.0119   -0.0028   -0.0056    0.0683    0.1474   -0.0362   -0.0153
          57    0.0517   -0.0294    0.0182    0.0027   -0.0762   -0.1297    0.0498    0.0381
          58   -0.0126   -0.0072   -0.0218   -0.0750    0.0075   -0.0052   -0.0091    0.0158
          59    0.0022    0.0335    0.0504   -0.0061    0.0021   -0.0063    0.0598    0.0006
          60   -0.0065    0.0160    0.0191   -0.0402    0.0050   -0.0075    0.0255    0.0159
          61    0.0416    0.0336   -0.0119   -0.0016   -0.0820    0.0556    0.0183    0.0158
          62   -0.0905    0.0458   -0.0420    0.0287    0.2304   -0.1486   -0.0612   -0.0581
          63   -0.0185   -0.0347    0.0162   -0.0052    0.0007    0.0044   -0.0119   -0.0077
          64    0.0108   -0.0297    0.0127    0.0007    0.0297    0.1056    0.0128    0.0114
          65    0.0567    0.0109   -0.0017    0.0065    0.0539    0.1656    0.0379    0.0375
          66    0.0792    0.0816   -0.0301    0.0077    0.0657    0.2282    0.0332    0.0375
          67   -0.0133    0.0429    0.0975    0.0915   -0.0031    0.0032    0.0127   -0.0092
          68    0.0400   -0.0445   -0.0867   -0.0601    0.0009    0.0037   -0.0106   -0.0103
          69   -0.0107    0.0069    0.0096   -0.0039    0.0006   -0.0021    0.0027    0.0045
          70   -0.0337    0.0463    0.0993    0.0526    0.0008   -0.0021    0.0167    0.0113
          71    0.0081   -0.0192   -0.0508   -0.0772    0.0039   -0.0069   -0.0091    0.0210
          72   -0.0071    0.0073    0.0116   -0.0095    0.0015   -0.0024    0.0042    0.0077


   Root No.      33        34        35        36        37        38        39        40

                33 A      34 A      35 A      36 A      37 A      38 A      39 A      40 A   

                1125.5    1139.2    1145.0    1182.2    1187.9    1197.1    1215.4    1280.5
  
           1    0.0278   -0.0074    0.0092   -0.0212   -0.0256   -0.0123    0.0165   -0.0081
           2    0.0090    0.0386    0.0074   -0.0217    0.0152    0.0083   -0.0091   -0.0353
           3   -0.0061   -0.0020   -0.0184    0.0264   -0.0064   -0.0285   -0.0089   -0.0300
           4   -0.0225    0.0011   -0.0074   -0.0002   -0.0127   -0.0111    0.0021   -0.0168
           5   -0.0103    0.0092   -0.0045   -0.0053    0.0203   -0.0178    0.0096   -0.0105
           6    0.0149    0.0008    0.0022   -0.0089    0.0017   -0.0151    0.0113   -0.0199
           7    0.0248   -0.0253    0.0290    0.0031    0.0040   -0.0006    0.0017    0.0079
           8   -0.0107   -0.0368   -0.0150    0.0110    0.0089   -0.0030   -0.0056    0.0045
           9   -0.0156    0.0157    0.0239    0.0019   -0.0047    0.0079    0.0048    0.0057
          10   -0.0254    0.0222   -0.0262   -0.0012   -0.0098    0.0000    0.0029    0.0027
          11    0.0047    0.0160    0.0030   -0.0053   -0.0088    0.0003    0.0046    0.0008
          12    0.0240   -0.0067   -0.0239   -0.0050    0.0049    0.0018   -0.0003   -0.0003
          13    0.0013   -0.0002    0.0011    0.0011    0.0078   -0.0013    0.0045    0.0114
          14   -0.0091    0.0040    0.0008    0.0059    0.0061    0.0132   -0.0040    0.0172
          15   -0.0150    0.0096    0.0019    0.0021    0.0166   -0.0012    0.0064    0.0181
          16    0.0004    0.0035   -0.0008    0.0014    0.0012    0.0094   -0.0076   -0.0054
          17    0.0187   -0.0138    0.0042   -0.0023   -0.0104   -0.0161    0.0115    0.0087
          18    0.0017   -0.0049    0.0002    0.0015   -0.0105    0.0056   -0.0047   -0.0023
          19   -0.0040    0.0038   -0.0016    0.0000    0.0053    0.0012   -0.0064   -0.0062
          20    0.0028   -0.0023    0.0007   -0.0042   -0.0051   -0.0070   -0.0025   -0.0062
          21   -0.0019   -0.0034    0.0129   -0.0489    0.0021    0.0030   -0.0213    0.0287
          22   -0.0055    0.0047   -0.0020   -0.0005    0.0070   -0.0006    0.0025    0.0053
          23   -0.0097    0.0053   -0.0025    0.0033   -0.0026    0.0175   -0.0124   -0.0027
          24   -0.0091    0.0064   -0.0038    0.0018    0.0061    0.0110   -0.0041    0.0071
          25   -0.0042    0.0021   -0.0007    0.0024    0.0005    0.0078   -0.0045    0.0025
          26    0.0126   -0.0110    0.0011   -0.0015   -0.0164   -0.0029   -0.0038   -0.0172
          27    0.0034   -0.0015    0.0001    0.0015   -0.0061    0.0078   -0.0075   -0.0065
          28    0.0029   -0.0004    0.0014   -0.0006   -0.0020   -0.0044   -0.0071    0.0069
          29   -0.0001    0.0028    0.0008    0.0005    0.0016   -0.0024   -0.0106    0.0081
          30   -0.0047   -0.0057   -0.0055    0.0181    0.0009    0.0065    0.0149   -0.0084
          31    0.0596    0.0015   -0.0244    0.1538    0.1542    0.0680   -0.0391   -0.0059
          32    0.0843    0.1130    0.0819    0.1597   -0.0960    0.0146    0.0853    0.0560
          33    0.0472    0.0433    0.0109    0.1925   -0.0009    0.0032    0.0204    0.0222
          34   -0.0281   -0.0564   -0.0483    0.0717    0.0007   -0.0334   -0.0341    0.0344
          35    0.0136   -0.0051    0.0096    0.0142   -0.0471    0.0578   -0.0369    0.0093
          36    0.0233   -0.0300   -0.0081    0.0331   -0.0271    0.0148   -0.0290    0.0114
          37   -0.0125   -0.0408    0.1908    0.0355    0.0890   -0.0205   -0.0667   -0.0810
          38    0.0029   -0.0300   -0.0770   -0.0071   -0.0442    0.0323    0.0563    0.0882
          39    0.0038    0.0234   -0.0562   -0.0072   -0.0259   -0.0073    0.0094    0.0071
          40    0.1688    0.0139   -0.0894   -0.0464    0.0838    0.0554   -0.0113   -0.0185
          41   -0.0837   -0.1046   -0.0020    0.0608   -0.0322   -0.0713   -0.0081   -0.0001
          42   -0.0253   -0.0087    0.0101    0.0178   -0.0125   -0.0162    0.0015   -0.0004
          43   -0.1019    0.0852    0.0796    0.0051   -0.0312    0.0025    0.0066   -0.0105
          44   -0.0024   -0.0323   -0.0061    0.0085    0.0034   -0.0046   -0.0008    0.0059
          45    0.0079   -0.0121   -0.0058    0.0013    0.0043    0.0003   -0.0008    0.0003
          46    0.0147    0.0837   -0.1070   -0.0289   -0.0219    0.0070    0.0088   -0.0113
          47   -0.0012   -0.0336   -0.0013    0.0072    0.0062   -0.0025   -0.0015    0.0077
          48   -0.0088   -0.0185    0.0522    0.0094    0.0025   -0.0017   -0.0001    0.0058
          49   -0.0614   -0.0404   -0.0643    0.0182    0.0256    0.0013   -0.0169   -0.0139
          50   -0.0093   -0.0091   -0.0084    0.0027    0.0025   -0.0001   -0.0017   -0.0031
          51    0.0026    0.0171    0.0420    0.0000   -0.0148   -0.0014    0.0085    0.0051
          52    0.0086   -0.0312    0.0196    0.0071   -0.0492    0.0257   -0.0373   -0.0332
          53   -0.0202    0.0120    0.0006    0.0042    0.0142    0.0066   -0.0007    0.0158
          54    0.0338   -0.0548    0.0282    0.0180   -0.0720    0.0582   -0.0566   -0.0251
          55    0.0166   -0.0023    0.0041   -0.0182    0.0224   -0.0751    0.0495    0.0069
          56   -0.0160   -0.0118   -0.0031    0.0195   -0.0443    0.0696   -0.0467   -0.0048
          57    0.0378   -0.0064    0.0071   -0.0174    0.0197   -0.0663    0.0437    0.0077
          58   -0.0268   -0.0648    0.0129   -0.0168    0.0054    0.0864    0.1200   -0.0412
          59   -0.0519   -0.0600    0.0124   -0.0244    0.0312    0.1331    0.1465   -0.0562
          60   -0.0323   -0.0508    0.0224   -0.0640    0.0162    0.0871    0.0799   -0.0015
          61    0.0114   -0.0083   -0.0111    0.0039   -0.0287    0.0361   -0.0277   -0.0134
          62   -0.0508    0.0308    0.0173   -0.0058    0.0810   -0.0680    0.0617    0.0473
          63   -0.0112    0.0093   -0.0030    0.0015    0.0100    0.0096   -0.0032    0.0087
          64    0.0054    0.0036    0.0037   -0.0055    0.0261   -0.0274    0.0254    0.0253
          65    0.0297   -0.0125    0.0084   -0.0135    0.0207   -0.0586    0.0435    0.0180
          66    0.0263   -0.0052    0.0101   -0.0136    0.0450   -0.0657    0.0564    0.0445
          67   -0.0023   -0.0017   -0.0065    0.0460    0.0043    0.0119    0.0092    0.0643
          68    0.0013   -0.0028   -0.0065    0.0580    0.0034    0.0138    0.0119    0.0778
          69   -0.0038   -0.0026    0.0030   -0.0365   -0.0023   -0.0083   -0.0059   -0.0650
          70    0.0008    0.0102    0.0163   -0.0373    0.0089    0.0039   -0.0391    0.0949
          71    0.0128    0.0025    0.0231   -0.0503   -0.0019   -0.0040   -0.0426    0.1263
          72   -0.0009   -0.0026    0.0100   -0.0218    0.0033    0.0091   -0.0106    0.0716


   Root No.      41        42        43        44        45        46        47        48

                41 A      42 A      43 A      44 A      45 A      46 A      47 A      48 A   

                1325.8    1328.9    1360.7    1385.8    1397.2    1403.2    1411.3    1415.5
  
           1   -0.0030   -0.0044   -0.0244    0.0405   -0.0183   -0.0074    0.0018   -0.0280
           2    0.0081   -0.0047    0.0377    0.0289    0.0154   -0.0003    0.0008   -0.0029
           3    0.0037   -0.0015    0.0162    0.0398   -0.0005   -0.0033    0.0010   -0.0149
           4   -0.0307    0.0179    0.0325   -0.0360    0.0107    0.0031   -0.0023    0.0487
           5    0.0308    0.0620   -0.0347   -0.0079   -0.0066    0.0007    0.0002   -0.0142
           6   -0.0058    0.0440   -0.0004   -0.0230    0.0007    0.0012   -0.0013    0.0302
           7    0.0400    0.0036    0.0209   -0.0009    0.0092    0.0099   -0.0009    0.0004
           8   -0.0271    0.0005   -0.0166   -0.0080   -0.0483   -0.0015    0.0075   -0.0028
           9   -0.0087    0.0012   -0.0080   -0.0070    0.0013   -0.0027   -0.0011    0.0029
          10    0.0067   -0.0002    0.0143   -0.0139   -0.0265   -0.0149    0.0038    0.0024
          11    0.0070   -0.0010    0.0039    0.0024    0.0008    0.0095   -0.0356   -0.0021
          12   -0.0009   -0.0006   -0.0013    0.0007    0.0062   -0.0322   -0.0094   -0.0033
          13   -0.0015   -0.0153    0.0023   -0.0011    0.0022    0.0014    0.0009   -0.0212
          14   -0.0006   -0.0312    0.0040    0.0081    0.0011    0.0000    0.0007   -0.0135
          15   -0.0054   -0.0331    0.0091    0.0018    0.0037    0.0020    0.0017   -0.0341
          16    0.0078    0.0125   -0.0058   -0.0034    0.0008    0.0015    0.0010   -0.0228
          17   -0.0217   -0.0355    0.0192    0.0072    0.0008   -0.0024   -0.0015    0.0357
          18   -0.0057   -0.0023    0.0048   -0.0047    0.0018    0.0011    0.0004   -0.0085
          19    0.0051   -0.0148   -0.0013   -0.0078    0.0021    0.0011   -0.0002    0.0024
          20    0.0049   -0.0145   -0.0109   -0.0105   -0.0013    0.0005   -0.0002    0.0017
          21    0.0023   -0.0069   -0.0130   -0.0267    0.0019    0.0026   -0.0009    0.0079
          22    0.0049   -0.0029   -0.0040    0.0033   -0.0009   -0.0003    0.0000   -0.0020
          23    0.0158    0.0074   -0.0158    0.0248   -0.0108   -0.0068   -0.0028    0.0624
          24    0.0154   -0.0011   -0.0145    0.0182   -0.0070   -0.0041   -0.0016    0.0309
          25    0.0053   -0.0028   -0.0037    0.0058   -0.0013   -0.0007    0.0000   -0.0005
          26   -0.0140    0.0205    0.0129   -0.0325    0.0108    0.0074    0.0028   -0.0614
          27    0.0004    0.0080    0.0015   -0.0090    0.0040    0.0030    0.0016   -0.0344
          28    0.0026   -0.0085   -0.0088   -0.0143    0.0001    0.0013   -0.0005    0.0037
          29    0.0039   -0.0115   -0.0088   -0.0186    0.0011    0.0017   -0.0006    0.0053
          30   -0.0012    0.0023    0.0029    0.0049   -0.0007   -0.0005    0.0002   -0.0012
          31    0.0099   -0.0008    0.0429   -0.0620    0.0200    0.0169    0.0034    0.0462
          32   -0.0191    0.0066   -0.0747   -0.0518   -0.0205   -0.0082   -0.0050    0.0049
          33   -0.0049    0.0061   -0.0205   -0.0414   -0.0051    0.0011   -0.0022    0.0163
          34    0.0511   -0.0269   -0.0407    0.0524   -0.0130   -0.0047    0.0013   -0.0498
          35   -0.0249   -0.0660    0.0339    0.0123    0.0074   -0.0003    0.0004   -0.0014
          36   -0.0019   -0.0409    0.0071    0.0219   -0.0011   -0.0022    0.0003   -0.0032
          37   -0.0920    0.0109   -0.0537    0.0352    0.0087   -0.0212   -0.0048   -0.0031
          38    0.0587    0.0077   -0.0137   -0.0374    0.1852    0.0090   -0.0435    0.0255
          39    0.0264   -0.0096    0.0459   -0.0087   -0.1676    0.0115    0.0381   -0.0188
          40   -0.0866    0.0031   -0.0664    0.0032    0.0885   -0.0195   -0.0185    0.0097
          41    0.0564    0.0103   -0.0006    0.0322    0.2008   -0.0019   -0.0484    0.0095
          42    0.0101    0.0051   -0.0124    0.0116    0.1118   -0.0075   -0.0258    0.0080
          43   -0.0775   -0.0070   -0.0712    0.0323    0.0949   -0.1250    0.0439   -0.0117
          44    0.0084    0.0028   -0.0052    0.0026    0.0319    0.0799    0.3224    0.0255
          45   -0.0102    0.0000   -0.0153    0.0073    0.0317   -0.0024    0.1276    0.0062
          46   -0.0623   -0.0101   -0.0579    0.0450    0.0770    0.1086    0.0454    0.0018
          47    0.0215    0.0031    0.0183   -0.0287    0.0070   -0.2541    0.1478   -0.0028
          48    0.0393    0.0041    0.0406   -0.0180   -0.0786    0.1113   -0.1807   -0.0003
          49   -0.1097   -0.0054   -0.0818    0.0384    0.0226    0.1378   -0.1062   -0.0062
          50   -0.0278   -0.0022   -0.0258    0.0180    0.0158    0.0681   -0.0436   -0.0024
          51    0.0232    0.0022    0.0053    0.0155    0.0028    0.3046    0.1650    0.0289
          52   -0.0124    0.0164    0.0007    0.0102   -0.0090   -0.0057   -0.0023    0.0646
          53   -0.0014   -0.0301    0.0045    0.0078   -0.0005    0.0002    0.0012   -0.0178
[...]
 EFF. MASS   3.4490

 VIBRATION   46   46A       ATOM PAIR        ENERGY CONTRIBUTION    RADIAL
 FREQ.      1403.24        C  4 --  H 17          +44.5% ( 59.2%)     1.0%
 T-DIPOLE    0.0275        C  4 --  H 16          +34.2% ( 51.9%)     3.3%
 TRAVEL      0.1664        C  4 --  H 15           +9.4% ( 27.2%)    48.1%
 RED. MASS   0.4060        C  3 --  C  4           +5.5% ( 20.8%)    18.9%
 EFF. MASS   1.7361

 VIBRATION   47   47A       ATOM PAIR        ENERGY CONTRIBUTION    RADIAL
 FREQ.      1411.27        C  4 --  H 15          +49.5% ( 61.7%)     0.0%
 T-DIPOLE    0.0480        C  4 --  H 16          +23.8% ( 42.8%)     5.6%
 TRAVEL      0.1707        C  4 --  H 17          +16.9% ( 36.0%)    19.4%
 RED. MASS   0.3902        C  3 --  C  4           +5.7% ( 20.9%)     3.8%
 EFF. MASS   1.6403

 VIBRATION   48   48A       ATOM PAIR        ENERGY CONTRIBUTION    RADIAL
 FREQ.      1415.46        C  8 --  C  9          +17.5% ( 67.9%)   100.0%
 T-DIPOLE    0.2017        C  5 --  C  9           +8.2% ( 46.4%)    99.9%
 TRAVEL      0.0695        C  6 --  C  8           +8.1% ( 46.3%)    99.7%
 RED. MASS   1.6578        C  6 --  C  9           +7.8% ( 45.5%)     0.1%
 EFF. MASS   9.8671

 VIBRATION   49   49A       ATOM PAIR        ENERGY CONTRIBUTION    RADIAL
 FREQ.      1427.22        C  3 --  C  4          +21.1% ( 58.0%)    99.8%
 T-DIPOLE    0.0920        C  4 --  H 15          +15.0% ( 48.9%)     4.4%
 TRAVEL      0.0951        C  4 --  H 16          +13.4% ( 46.2%)     2.9%
 RED. MASS   0.9773        C  4 --  H 17          +13.2% ( 45.9%)     3.7%
 EFF. MASS   5.2207        C  3 --  H 13          +13.2% ( 45.8%)     4.1%
                           C  3 --  H 14          +12.9% ( 45.3%)     3.5%

 VIBRATION   50   50A       ATOM PAIR        ENERGY CONTRIBUTION    RADIAL
 FREQ.      1733.33        C  6 --  C  9          +19.7% ( 75.6%)    99.9%
 T-DIPOLE    0.3860        C  5 --  C  8          +16.7% ( 69.7%)    99.8%
 TRAVEL      0.0569        C  5 --  C  9          +10.8% ( 55.9%)    24.9%
 RED. MASS   2.7353        C  6 --  C  8          +10.7% ( 55.6%)    27.2%
 EFF. MASS  12.0200

 VIBRATION   51   51A       ATOM PAIR        ENERGY CONTRIBUTION    RADIAL
 FREQ.      1790.65        C  5 --  C  8          +19.4% ( 73.1%)    99.8%
 T-DIPOLE    0.3162        C  6 --  C  9          +16.3% ( 67.0%)    99.8%
 TRAVEL      0.0565        C  8 --  C  9          +12.1% ( 57.6%)     0.0%
 RED. MASS   2.6983        C  5 --  C  9          +10.9% ( 54.8%)    78.5%
 EFF. MASS  11.7975        C  6 --  C  8          +10.8% ( 54.6%)    53.1%

 VIBRATION   52   52A       ATOM PAIR        ENERGY CONTRIBUTION    RADIAL
 FREQ.      1860.00        C  7 --  C 10          +45.5% ( 99.5%)    99.0%
 T-DIPOLE    0.0745        C  1 --  C  7          +16.5% ( 59.8%)    53.4%
 TRAVEL      0.0554        C  7 --  H 20          +15.4% ( 57.8%)     4.2%
 RED. MASS   5.3046        C 10 --  H 24          +11.1% ( 49.1%)    11.1%
 EFF. MASS  11.7949        C 10 --  H 23          +10.9% ( 48.7%)    12.8%

 VIBRATION   53   53A       ATOM PAIR        ENERGY CONTRIBUTION    RADIAL
 FREQ.      2870.39        C  1 --  H 11          +89.6% ( 96.3%)   100.0%
 T-DIPOLE    0.0388        C  2 --  H 12           +6.5% ( 26.0%)    99.9%
 TRAVEL      0.1273        C  1 --  C  2           +1.1% ( 10.8%)     9.1%
 RED. MASS   0.8027        C  1 --  C  3           +1.0% ( 10.2%)     8.3%
 EFF. MASS   1.4492

 VIBRATION   54   54A       ATOM PAIR        ENERGY CONTRIBUTION    RADIAL
 FREQ.      2887.05        C  2 --  H 12          +90.6% ( 96.6%)   100.0%
 T-DIPOLE    0.2092        C  1 --  H 11           +6.4% ( 25.6%)    99.9%
 TRAVEL      0.1277        C  2 --  C  5           +0.9% (  9.8%)    10.7%
 RED. MASS   0.8139        C  2 --  C  6           +0.9% (  9.8%)    10.5%
 EFF. MASS   1.4311

 VIBRATION   55   55A       ATOM PAIR        ENERGY CONTRIBUTION    RADIAL
 FREQ.      2912.49        C  3 --  H 13          +76.8% ( 90.6%)    98.8%
 T-DIPOLE    0.0747        C  3 --  H 14          +19.7% ( 45.8%)    89.3%
 TRAVEL      0.1234        C  3 --  C  4           +1.1% ( 11.0%)     1.6%
 RED. MASS   0.6646        C  1 --  C  3           +1.1% ( 10.9%)     2.1%
 EFF. MASS   1.5192

 VIBRATION   56   56A       ATOM PAIR        ENERGY CONTRIBUTION    RADIAL
 FREQ.      3010.88        C  3 --  H 14          +80.1% ( 88.8%)    99.7%
 T-DIPOLE    0.0645        C  3 --  H 13          +17.4% ( 41.4%)    87.3%
 TRAVEL      0.1310        C  3 --  C  4           +0.7% (  8.2%)    22.0%
 RED. MASS   0.6450        C  1 --  C  3           +0.7% (  8.0%)    23.1%
 EFF. MASS   1.3045

 VIBRATION   57   57A       ATOM PAIR        ENERGY CONTRIBUTION    RADIAL
 FREQ.      3038.58        C  7 --  H 20          +96.3% ( 99.5%)   100.0%
 T-DIPOLE    0.2298        C  7 --  C 10           +1.4% ( 12.1%)    31.2%
 TRAVEL      0.1216        C  1 --  C  7           +1.3% ( 11.7%)    13.8%
 RED. MASS   0.9114        C 10 --  H 23           +0.9% (  9.5%)    95.3%
 EFF. MASS   1.5008

 VIBRATION   58   58A       ATOM PAIR        ENERGY CONTRIBUTION    RADIAL
 FREQ.      3076.16        C  4 --  H 16          +54.4% ( 76.1%)    97.7%
 T-DIPOLE    0.0298        C  4 --  H 15          +43.3% ( 67.9%)    96.2%
 TRAVEL      0.1208        C  4 --  H 17           +1.2% ( 11.1%)     6.0%
 RED. MASS   0.5111        C  3 --  C  4           +1.0% ( 10.3%)     0.0%
 EFF. MASS   1.5025

 VIBRATION   59   59A       ATOM PAIR        ENERGY CONTRIBUTION    RADIAL
 FREQ.      3084.50        C  4 --  H 17          +61.0% ( 80.6%)    98.7%
 T-DIPOLE    0.0184        C  4 --  H 15          +23.0% ( 49.5%)    89.1%
 TRAVEL      0.1205        C  4 --  H 16          +14.7% ( 39.5%)    81.7%
 RED. MASS   0.4758        C  3 --  C  4           +1.0% ( 10.4%)     0.0%
 EFF. MASS   1.5053

 VIBRATION   60   60A       ATOM PAIR        ENERGY CONTRIBUTION    RADIAL
 FREQ.      3108.56        C  5 --  H 18          +87.9% ( 96.0%)   100.0%
 T-DIPOLE    0.4300        C  8 --  H 21           +6.4% ( 25.9%)    99.7%
 TRAVEL      0.1197        C  2 --  C  5           +1.5% ( 12.6%)    22.8%
 RED. MASS   0.7942        C  5 --  C  9           +1.5% ( 12.6%)    95.4%
 EFF. MASS   1.5137

 VIBRATION   61   61A       ATOM PAIR        ENERGY CONTRIBUTION    RADIAL
 FREQ.      3132.03        C  9 --  H 22          +55.2% ( 76.1%)   100.0%
 T-DIPOLE    0.3303        C  6 --  H 19          +38.2% ( 63.3%)   100.0%
 TRAVEL      0.1206        C  8 --  H 21           +2.2% ( 15.1%)    99.9%
 RED. MASS   0.4577        C  6 --  C  9           +1.2% ( 11.0%)     0.6%
 EFF. MASS   1.4792

 VIBRATION   62   62A       ATOM PAIR        ENERGY CONTRIBUTION    RADIAL
 FREQ.      3134.29        C 10 --  H 24          +92.0% ( 97.6%)    99.9%
 T-DIPOLE    0.1984        C 10 --  H 23           +6.7% ( 26.3%)    70.8%
 TRAVEL      0.1182        C  7 --  C 10           +1.3% ( 11.7%)    22.5%
 RED. MASS   0.8558
 EFF. MASS   1.5388

 VIBRATION   63   63A       ATOM PAIR        ENERGY CONTRIBUTION    RADIAL
 FREQ.      3140.26        C  8 --  H 21          +68.0% ( 84.8%)   100.0%
 T-DIPOLE    0.4838        C  6 --  H 19          +19.0% ( 44.9%)   100.0%
 TRAVEL      0.1165        C  5 --  H 18           +3.8% ( 20.2%)    99.6%
 RED. MASS   0.5223        C  9 --  H 22           +3.6% ( 19.4%)    99.5%
 EFF. MASS   1.5817

 VIBRATION   64   64A       ATOM PAIR        ENERGY CONTRIBUTION    RADIAL
 FREQ.      3146.04        C 10 --  H 23          +91.9% ( 96.6%)    99.7%
 T-DIPOLE    0.2529        C 10 --  H 24           +5.6% ( 23.9%)    40.4%
 TRAVEL      0.1209        C  7 --  C 10           +1.6% ( 12.7%)    72.8%
 RED. MASS   0.8215        C  7 --  H 20           +0.8% (  8.8%)    94.6%
 EFF. MASS   1.4667

 VIBRATION   65   65A       ATOM PAIR        ENERGY CONTRIBUTION    RADIAL
 FREQ.      3152.24        C  6 --  H 19          +37.3% ( 62.9%)    99.9%
 T-DIPOLE    0.3305        C  9 --  H 22          +36.0% ( 61.7%)   100.0%
 TRAVEL      0.1127        C  8 --  H 21          +17.9% ( 43.6%)   100.0%
 RED. MASS   0.3226        C  5 --  H 18           +2.2% ( 15.4%)    99.8%
 EFF. MASS   1.6843

 VIBRATION   66   66A       ATOM PAIR        ENERGY CONTRIBUTION    RADIAL
 FREQ.      3178.77        C  4 --  H 17          +37.4% ( 58.9%)    97.7%
 T-DIPOLE    0.0182        C  4 --  H 15          +32.6% ( 55.0%)    97.0%
 TRAVEL      0.1366        C  4 --  H 16          +29.6% ( 52.4%)    96.4%
 RED. MASS   0.3295        C  3 --  C  4           +0.3% (  5.1%)    99.2%
 EFF. MASS   1.1369

 SYMMETRY NUMBER FOR POINT-GROUP C1  =  1


          SYSTEM IS A GROUND STATE


    NULL



          MOLECULE IS NOT LINEAR

          THERE ARE 66 GENUINE VIBRATIONS IN THIS SYSTEM
          THIS THERMODYNAMICS CALCULATION IS LIMITED TO
          MOLECULES WHICH HAVE NO INTERNAL ROTATIONS




                    CALCULATED THERMODYNAMIC PROPERTIES
                                          *
   TEMP. (K)   PARTITION FUNCTION   H.O.F.    ENTHALPY  HEAT CAPACITY ENTROPY
                                   KCAL/MOL   CAL/MOLE    CAL/K/MOL  CAL/K/MOL


 298.00  VIB.     0.7005D+03                  4658.3570    33.1073    28.6518
         ROT.     0.7224D+06                   888.2813     2.9808    29.7890
         INT.     0.5060D+09                  5546.6383    36.0881    58.4408
         TRA.     0.1503D+28                  1480.4688     4.9680    40.5931
         TOT.                       38.068    7027.1072    41.0561    99.0338

 200.00  VIB.     0.5491D+02                  2041.5203    20.6999    18.1677
         ROT.     0.3972D+06                   596.1620     2.9808    28.6003
         INT.     0.2181D+08                  2637.6823    23.6807    46.7680
         TRA.     0.8266D+27                   993.6033     4.9680    38.6119
         TOT.                       34.672    3631.2855    28.6487    85.3800

 210.00  VIB.     0.7100D+02                  2254.1788    21.8378    19.2051
         ROT.     0.4274D+06                   625.9700     2.9808    28.7458
         INT.     0.3034D+08                  2880.1488    24.8186    47.9508
         TRA.     0.8893D+27                  1043.2834     4.9680    38.8543
         TOT.                       34.964    3923.4322    29.7866    86.8051

 220.00  VIB.     0.9185D+02                  2478.3955    23.0114    20.2479
         ROT.     0.4583D+06                   655.7781     2.9808    28.8844
         INT.     0.4209D+08                  3134.1736    25.9922    49.1323
         TRA.     0.9536D+27                  1092.9636     4.9680    39.0854
         TOT.                       35.268    4227.1372    30.9602    88.2178

 230.00  VIB.     0.1189D+03                  2714.5207    24.2192    21.2973
         ROT.     0.4899D+06                   685.5862     2.9808    29.0169
         INT.     0.5823D+08                  3400.1069    27.2000    50.3143
         TRA.     0.1019D+28                  1142.6437     4.9680    39.3063
         TOT.                       35.583    4542.7506    32.1680    89.6205

 240.00  VIB.     0.1539D+03                  2962.8868    25.4591    22.3542
         ROT.     0.5221D+06                   715.3943     2.9808    29.1438
         INT.     0.8038D+08                  3678.2812    28.4399    51.4980
         TRA.     0.1087D+28                  1192.3239     4.9680    39.5177
         TOT.                       35.911    4870.6051    33.4080    91.0157

 250.00  VIB.     0.1995D+03                  3223.8003    26.7281    23.4191
         ROT.     0.5551D+06                   745.2024     2.9808    29.2655
         INT.     0.1107D+09                  3969.0027    29.7089    52.6846
         TRA.     0.1155D+28                  1242.0041     4.9680    39.7205
         TOT.                       36.252    5211.0068    34.6770    92.4051

 260.00  VIB.     0.2587D+03                  3497.5351    28.0228    24.4925
         ROT.     0.5888D+06                   775.0105     2.9808    29.3824
         INT.     0.1523D+09                  4272.5456    31.0036    53.8749
         TRA.     0.1225D+28                  1291.6842     4.9680    39.9154
         TOT.                       36.605    5564.2298    35.9716    93.7903

 270.00  VIB.     0.3358D+03                  3784.3286    29.3392    25.5748
         ROT.     0.6230D+06                   804.8186     2.9808    29.4949
         INT.     0.2092D+09                  4589.1472    32.3200    55.0696
         TRA.     0.1297D+28                  1341.3644     4.9680    40.1029
         TOT.                       36.971    5930.5116    37.2881    95.1725

 280.00  VIB.     0.4363D+03                  4084.3792    30.6735    26.6658
         ROT.     0.6580D+06                   834.6267     2.9808    29.6033
         INT.     0.2871D+09                  4919.0059    33.6543    56.2691
         TRA.     0.1369D+28                  1391.0445     4.9680    40.2835
         TOT.                       37.351    6310.0505    38.6223    96.5526

 290.00  VIB.     0.5673D+03                  4397.8450    32.0216    27.7657
         ROT.     0.6935D+06                   864.4348     2.9808    29.7079
         INT.     0.3935D+09                  5262.2798    35.0024    57.4736
         TRA.     0.1443D+28                  1440.7247     4.9680    40.4579
         TOT.                       37.744    6703.0045    39.9704    97.9314

 300.00  VIB.     0.7385D+03                  4724.8437    33.3795    28.8741
         ROT.     0.7297D+06                   894.2429     2.9808    29.8089
         INT.     0.5389D+09                  5619.0867    36.3603    58.6831
         TRA.     0.1518D+28                  1490.4049     4.9680    40.6263
         TOT.                       38.150    7109.4915    41.3283    99.3094

 310.00  VIB.     0.9623D+03                  5065.4542    34.7433    29.9909
         ROT.     0.7665D+06                   924.0510     2.9808    29.9067
         INT.     0.7376D+09                  5989.5052    37.7241    59.8975
         TRA.     0.1595D+28                  1540.0850     4.9680    40.7892
         TOT.                       38.570    7529.5902    42.6921   100.6867

 320.00  VIB.     0.1255D+04                  5419.7175    36.1095    31.1155
         ROT.     0.8039D+06                   953.8591     2.9808    30.0013
         INT.     0.1009D+10                  6373.5766    39.0903    61.1168
         TRA.     0.1673D+28                  1589.7652     4.9680    40.9469
         TOT.                       39.004    7963.3418    44.0583   102.0637

 330.00  VIB.     0.1639D+04                  5787.6396    37.4745    32.2475
         ROT.     0.8419D+06                   983.6672     2.9808    30.0930
         INT.     0.1380D+10                  6771.3069    40.4553    62.3406
         TRA.     0.1752D+28                  1639.4454     4.9680    41.0998
         TOT.                       39.451    8410.7522    45.4234   103.4404

 340.00  VIB.     0.2143D+04                  6169.1940    38.8354    33.3865
         ROT.     0.8804D+06                  1013.4753     2.9808    30.1820
         INT.     0.1887D+10                  7182.6694    41.8162    63.5685
         TRA.     0.1832D+28                  1689.1255     4.9680    41.2481
         TOT.                       39.912    8871.7949    46.7842   104.8166

 350.00  VIB.     0.2805D+04                  6564.3243    40.1893    34.5318
         ROT.     0.9196D+06                  1043.2834     2.9808    30.2684
         INT.     0.2579D+10                  7607.6077    43.1701    64.8002
         TRA.     0.1914D+28                  1738.8057     4.9680    41.3921
         TOT.                       40.387    9346.4134    48.1381   106.1923

 360.00  VIB.     0.3675D+04                  6972.9473    41.5335    35.6828
         ROT.     0.9592D+06                  1073.0915     2.9808    30.3524
         INT.     0.3525D+10                  8046.0388    44.5144    66.0352
         TRA.     0.1996D+28                  1788.4859     4.9680    41.5321
         TOT.                       40.875    9834.5247    49.4824   107.5673

 370.00  VIB.     0.4820D+04                  7394.9559    42.8660    36.8390
         ROT.     0.9995D+06                  1102.8996     2.9808    30.4341
         INT.     0.4818D+10                  8497.8555    45.8468    67.2731
         TRA.     0.2080D+28                  1838.1660     4.9680    41.6682
         TOT.                       41.377   10336.0215    50.8149   108.9413

 380.00  VIB.     0.6329D+04                  7830.2222    44.1848    37.9997
         ROT.     0.1040D+07                  1132.7077     2.9808    30.5136
         INT.     0.6584D+10                  8962.9299    47.1656    68.5133
         TRA.     0.2165D+28                  1887.8462     4.9680    41.8007
         TOT.                       41.891   10850.7760    52.1336   110.3139

 390.00  VIB.     0.8319D+04                  8278.5999    45.4881    39.1643
         ROT.     0.1082D+07                  1162.5158     2.9808    30.5910
         INT.     0.8998D+10                  9441.1157    48.4689    69.7553
         TRA.     0.2251D+28                  1937.5263     4.9680    41.9297
         TOT.                       42.419   11378.6421    53.4369   111.6850

 400.00  VIB.     0.1095D+05                  8739.9275    46.7745    40.3322
         ROT.     0.1123D+07                  1192.3239     2.9808    30.6665
         INT.     0.1230D+11                  9932.2514    49.7553    70.9987
         TRA.     0.2338D+28                  1987.2065     4.9680    42.0555
         TOT.                       42.960   11919.4579    54.7234   113.0542

   *: NOTE: HEATS OF FORMATION ARE RELATIVE TO THE
            ELEMENTS IN THEIR STANDARD STATE AT 298K
              (=  Standard Enthalpy of Formation).

            Hvib:  Zero-point energy is not included.
                   frequencies of less than zero cm-1 are not included.
            Hrot = (3/2)RT
            Htra = (3/2)RT + pV = (5/2)RT

            Heat capacity is Cp, not Cv

           For more information, see: HTTP://OpenMOPAC.net/Manual/thermochemistry.html


           FORCE CONSTANT IN CARTESIAN COORDINATES (Millidynes/A)

    ATOM   CHEMICAL       X               Y               Z
   NUMBER   SYMBOL  FORCE CONSTANT  FORCE CONSTANT  FORCE CONSTANT

      1       C        8.058481        8.133392        8.824381
      2       C        8.584029        8.147258        8.743137
      3       C        8.516107        7.847200        8.239429
      4       C        8.298657        8.414790        8.207059
      5       C        7.121287       12.428033        7.220586
      6       C        6.855306        9.034486       10.876390
      7       C        7.523828       10.692139        8.939410
      8       C        7.644344        9.689390       10.135034
      9       C        7.649034       10.178546        9.605733
     10       C        7.096403       10.387053        9.034454
     11       H        1.106506        1.549485        3.387534
     12       H        1.140869        1.357476        3.380995
     13       H        1.868443        1.908740        2.493382
     14       H        0.794759        1.433003        4.185168
     15       H        0.829954        1.233467        4.717244
     16       H        2.084852        2.082272        2.572898
     17       H        1.193339        4.918465        0.679579
     18       H        0.746743        4.733086        0.832836
     19       H        0.681701        3.211104        2.548199
     20       H        0.923209        1.149437        4.148074
     21       H        1.819680        0.852894        3.786889
     22       H        1.909829        3.502376        1.049309
     23       H        1.006767        1.611247        3.858175
     24       H        0.992079        1.246738        4.223163



 TOTAL CPU TIME:             3.60 SECONDS

 == MOPAC DONE ==
