 *******************************************************************************
 ** Site#: 14399           For non-commercial use only        Version 13.159M **
 *******************************************************************************
 ** Cite this work as: MOPAC2012, James J. P. Stewart, Stewart Computational  **
 ** Chemistry, Version 13.159M web: HTTP://OpenMOPAC.net  Days remaining:   6 **
 *******************************************************************************
 **                                                                           **
 **                                MOPAC2012                                  **
 **                                                                           **
 *******************************************************************************

                            PM3 CALCULATION RESULTS


 *******************************************************************************
 *  CALCULATION DONE:                                Mon Jun  2 11:09:44 2014  *
 *  PM3      - The PM3 Hamiltonian to be used
 *  PRECISE  - CRITERIA TO BE INCREASED BY 100 TIMES
 *  NOSYM    - POINT-GROUP SYMMETRY SET TO C1
 *  T=       - A TIME OF 172800.0 SECONDS REQUESTED
 *  DUMP=N   - RESTART FILE WRITTEN EVERY  7200.000 SECONDS
 *******************************************************************************
pm3  precise nosym
 InChI=1S/C11H16/c1-2-9-5-3-6-10-7-4-8-11(9)10/h3-5,7,9-11H,2,6,8H2,1H3

   ATOM   CHEMICAL          X               Y               Z
  NUMBER   SYMBOL      (ANGSTROMS)     (ANGSTROMS)     (ANGSTROMS)
 
     1       C         -0.53050000  *  -0.44840000  *   0.57670000  *
     2       C          0.79380000  *   0.09680000  *  -0.03000000  *
     3       C         -1.76540000  *   0.47070000  *   0.36780000  *
     4       C          2.03540000  *  -0.62690000  *   0.52310000  *
     5       C         -0.93790000  *  -1.83150000  *   0.03770000  *
     6       C         -1.49900000  *   1.69120000  *  -0.53060000  *
     7       C          3.31490000  *  -0.36360000  *  -0.26820000  *
     8       C         -2.80060000  *  -0.43340000  *  -0.20450000  *
     9       C          0.86480000  *   1.59980000  *   0.14670000  *
    10       C         -2.35720000  *  -1.66760000  *  -0.37360000  *
    11       C         -0.21610000  *   2.35220000  *  -0.10700000  *
    12       H         -0.38530000  *  -0.53940000  *   1.68130000  *
    13       H         -2.14000000  *   0.83880000  *   1.35300000  *
    14       H          0.75500000  *  -0.07360000  *  -1.13290000  *
    15       H          1.86830000  *  -1.72890000  *   0.50500000  *
    16       H          2.19850000  *  -0.34920000  *   1.59060000  *
    17       H         -0.35170000  *  -2.16110000  *  -0.85070000  *
    18       H         -0.86110000  *  -2.61720000  *   0.82430000  *
    19       H         -2.34390000  *   2.41610000  *  -0.48360000  *
    20       H         -1.38620000  *   1.37610000  *  -1.59490000  *
    21       H          3.19460000  *  -0.67630000  *  -1.33040000  *
    22       H          3.60310000  *   0.71090000  *  -0.23910000  *
    23       H          4.15520000  *  -0.94910000  *   0.16920000  *
    24       H         -2.96800000  *  -2.47150000  *  -0.77970000  *
    25       H         -3.81520000  *  -0.12410000  *  -0.44900000  *
    26       H         -0.18810000  *   3.42610000  *   0.06990000  *
    27       H          1.76260000  *   2.08320000  *   0.52900000  *
 


          CARTESIAN COORDINATES 

    NO.       ATOM         X         Y         Z

     1         C       -0.5305   -0.4484    0.5767
     2         C        0.7938    0.0968   -0.0300
     3         C       -1.7654    0.4707    0.3678
     4         C        2.0354   -0.6269    0.5231
     5         C       -0.9379   -1.8315    0.0377
     6         C       -1.4990    1.6912   -0.5306
     7         C        3.3149   -0.3636   -0.2682
     8         C       -2.8006   -0.4334   -0.2045
     9         C        0.8648    1.5998    0.1467
    10         C       -2.3572   -1.6676   -0.3736
    11         C       -0.2161    2.3522   -0.1070
    12         H       -0.3853   -0.5394    1.6813
    13         H       -2.1400    0.8388    1.3530
    14         H        0.7550   -0.0736   -1.1329
    15         H        1.8683   -1.7289    0.5050
    16         H        2.1985   -0.3492    1.5906
    17         H       -0.3517   -2.1611   -0.8507
    18         H       -0.8611   -2.6172    0.8243
    19         H       -2.3439    2.4161   -0.4836
    20         H       -1.3862    1.3761   -1.5949
    21         H        3.1946   -0.6763   -1.3304
    22         H        3.6031    0.7109   -0.2391
    23         H        4.1552   -0.9491    0.1692
    24         H       -2.9680   -2.4715   -0.7797
    25         H       -3.8152   -0.1241   -0.4490
    26         H       -0.1881    3.4261    0.0699
    27         H        1.7626    2.0832    0.5290

  H: (PM3): J. J. P. STEWART, J. COMP. CHEM. 10, 209 (1989).
  C: (PM3): J. J. P. STEWART, J. COMP. CHEM. 10, 209 (1989).

           Empirical Formula: C11 H16  =    27 atoms



      MOLECULAR POINT GROUP   :   C1  


      RHF CALCULATION, NO. OF DOUBLY OCCUPIED LEVELS =   30

      Geometry optimization using EF

          DIAGONAL MATRIX USED AS START HESSIAN

 CYCLE:     1 TIME:   0.015 TIME LEFT:  2.00D  GRAD.:    63.172 HEAT: 11.03533
 CYCLE:     2 TIME:   0.027 TIME LEFT:  2.00D  GRAD.:    49.350 HEAT: 9.963171
 CYCLE:     3 TIME:   0.010 TIME LEFT:  2.00D  GRAD.:    58.457 HEAT: 9.508646
 CYCLE:     4 TIME:   0.010 TIME LEFT:  2.00D  GRAD.:    43.178 HEAT: 9.025300
 CYCLE:     5 TIME:   0.010 TIME LEFT:  2.00D  GRAD.:    53.593 HEAT: 8.985094
 CYCLE:     6 TIME:   0.010 TIME LEFT:  2.00D  GRAD.:    53.817 HEAT: 8.957334
 CYCLE:     7 TIME:   0.010 TIME LEFT:  2.00D  GRAD.:    58.914 HEAT: 8.827857
 CYCLE:     8 TIME:   0.010 TIME LEFT:  2.00D  GRAD.:    53.543 HEAT: 8.698493
 CYCLE:     9 TIME:   0.010 TIME LEFT:  2.00D  GRAD.:    46.993 HEAT: 8.568973
 CYCLE:    10 TIME:   0.010 TIME LEFT:  2.00D  GRAD.:    47.654 HEAT: 8.473736
 CYCLE:    11 TIME:   0.018 TIME LEFT:  2.00D  GRAD.:    18.692 HEAT: 7.896221
 CYCLE:    12 TIME:   0.018 TIME LEFT:  2.00D  GRAD.:    14.418 HEAT: 7.809372
 CYCLE:    13 TIME:   0.010 TIME LEFT:  2.00D  GRAD.:    16.287 HEAT: 7.777006
 CYCLE:    14 TIME:   0.010 TIME LEFT:  2.00D  GRAD.:    15.004 HEAT: 7.736282
 CYCLE:    15 TIME:   0.010 TIME LEFT:  2.00D  GRAD.:    16.635 HEAT: 7.715997
 CYCLE:    16 TIME:   0.010 TIME LEFT:  2.00D  GRAD.:    16.968 HEAT: 7.699455
 CYCLE:    17 TIME:   0.010 TIME LEFT:  2.00D  GRAD.:    11.256 HEAT: 7.627354
 CYCLE:    18 TIME:   0.018 TIME LEFT:  2.00D  GRAD.:     9.202 HEAT: 7.595002
 CYCLE:    19 TIME:   0.010 TIME LEFT:  2.00D  GRAD.:     9.749 HEAT: 7.573077
 CYCLE:    20 TIME:   0.010 TIME LEFT:  2.00D  GRAD.:     9.457 HEAT: 7.551860
 CYCLE:    21 TIME:   0.010 TIME LEFT:  2.00D  GRAD.:     6.998 HEAT: 7.518111
 CYCLE:    22 TIME:   0.010 TIME LEFT:  2.00D  GRAD.:     9.259 HEAT: 7.498725
 CYCLE:    23 TIME:   0.010 TIME LEFT:  2.00D  GRAD.:     6.530 HEAT: 7.461949
 CYCLE:    24 TIME:   0.010 TIME LEFT:  2.00D  GRAD.:    10.182 HEAT: 7.455138
 CYCLE:    25 TIME:   0.018 TIME LEFT:  2.00D  GRAD.:     8.907 HEAT: 7.440652
 CYCLE:    26 TIME:   0.010 TIME LEFT:  2.00D  GRAD.:     7.323 HEAT: 7.425999
 CYCLE:    27 TIME:   0.010 TIME LEFT:  2.00D  GRAD.:     4.226 HEAT: 7.409038
 CYCLE:    28 TIME:   0.010 TIME LEFT:  2.00D  GRAD.:     5.294 HEAT: 7.407505
 CYCLE:    29 TIME:   0.010 TIME LEFT:  2.00D  GRAD.:     2.187 HEAT: 7.396515
 CYCLE:    30 TIME:   0.009 TIME LEFT:  2.00D  GRAD.:     2.505 HEAT: 7.392208
 CYCLE:    31 TIME:   0.010 TIME LEFT:  2.00D  GRAD.:     2.980 HEAT: 7.385167
 CYCLE:    32 TIME:   0.010 TIME LEFT:  2.00D  GRAD.:     3.547 HEAT: 7.377394
 CYCLE:    33 TIME:   0.010 TIME LEFT:  2.00D  GRAD.:     2.663 HEAT: 7.371910
 CYCLE:    34 TIME:   0.010 TIME LEFT:  2.00D  GRAD.:     1.927 HEAT: 7.366351
 CYCLE:    35 TIME:   0.010 TIME LEFT:  2.00D  GRAD.:     1.993 HEAT: 7.359826
 CYCLE:    36 TIME:   0.010 TIME LEFT:  2.00D  GRAD.:     3.178 HEAT: 7.355765
 CYCLE:    37 TIME:   0.010 TIME LEFT:  2.00D  GRAD.:     2.440 HEAT: 7.351471
 CYCLE:    38 TIME:   0.010 TIME LEFT:  2.00D  GRAD.:     1.972 HEAT: 7.346785
 CYCLE:    39 TIME:   0.010 TIME LEFT:  2.00D  GRAD.:     1.693 HEAT: 7.341392
 CYCLE:    40 TIME:   0.010 TIME LEFT:  2.00D  GRAD.:     2.322 HEAT: 7.336310
 CYCLE:    41 TIME:   0.010 TIME LEFT:  2.00D  GRAD.:     1.616 HEAT: 7.332730
 CYCLE:    42 TIME:   0.010 TIME LEFT:  2.00D  GRAD.:     1.478 HEAT: 7.328960
 CYCLE:    43 TIME:   0.010 TIME LEFT:  2.00D  GRAD.:     1.719 HEAT: 7.321561
 CYCLE:    44 TIME:   0.010 TIME LEFT:  2.00D  GRAD.:     1.517 HEAT: 7.317561
 CYCLE:    45 TIME:   0.010 TIME LEFT:  2.00D  GRAD.:     1.518 HEAT: 7.311902
 CYCLE:    46 TIME:   0.010 TIME LEFT:  2.00D  GRAD.:     1.725 HEAT: 7.306481
 CYCLE:    47 TIME:   0.010 TIME LEFT:  2.00D  GRAD.:     1.538 HEAT: 7.302159
 CYCLE:    48 TIME:   0.010 TIME LEFT:  2.00D  GRAD.:     1.109 HEAT: 7.299533
 CYCLE:    49 TIME:   0.010 TIME LEFT:  2.00D  GRAD.:     0.998 HEAT: 7.297374
 CYCLE:    50 TIME:   0.010 TIME LEFT:  2.00D  GRAD.:     1.066 HEAT: 7.295363
 CYCLE:    51 TIME:   0.010 TIME LEFT:  2.00D  GRAD.:     0.825 HEAT: 7.294019
 CYCLE:    52 TIME:   0.010 TIME LEFT:  2.00D  GRAD.:     0.639 HEAT: 7.293117
 CYCLE:    53 TIME:   0.010 TIME LEFT:  2.00D  GRAD.:     0.752 HEAT: 7.292189
 CYCLE:    54 TIME:   0.010 TIME LEFT:  2.00D  GRAD.:     0.827 HEAT: 7.291057
 CYCLE:    55 TIME:   0.010 TIME LEFT:  2.00D  GRAD.:     0.816 HEAT: 7.289783
 CYCLE:    56 TIME:   0.010 TIME LEFT:  2.00D  GRAD.:     0.682 HEAT: 7.288573
 CYCLE:    57 TIME:   0.010 TIME LEFT:  2.00D  GRAD.:     0.720 HEAT: 7.287411
 CYCLE:    58 TIME:   0.010 TIME LEFT:  2.00D  GRAD.:     0.798 HEAT: 7.286140
 CYCLE:    59 TIME:   0.010 TIME LEFT:  2.00D  GRAD.:     0.750 HEAT: 7.284961
 CYCLE:    60 TIME:   0.010 TIME LEFT:  2.00D  GRAD.:     0.698 HEAT: 7.283882
 CYCLE:    61 TIME:   0.010 TIME LEFT:  2.00D  GRAD.:     0.734 HEAT: 7.282817
 CYCLE:    62 TIME:   0.010 TIME LEFT:  2.00D  GRAD.:     0.839 HEAT: 7.281472
 CYCLE:    63 TIME:   0.010 TIME LEFT:  2.00D  GRAD.:     0.851 HEAT: 7.279865
 CYCLE:    64 TIME:   0.010 TIME LEFT:  2.00D  GRAD.:     0.785 HEAT: 7.278021
 CYCLE:    65 TIME:   0.010 TIME LEFT:  2.00D  GRAD.:     0.753 HEAT: 7.276463
 CYCLE:    66 TIME:   0.010 TIME LEFT:  2.00D  GRAD.:     0.742 HEAT: 7.275097
 CYCLE:    67 TIME:   0.010 TIME LEFT:  2.00D  GRAD.:     0.692 HEAT: 7.273983
 CYCLE:    68 TIME:   0.010 TIME LEFT:  2.00D  GRAD.:     0.650 HEAT: 7.272867
 CYCLE:    69 TIME:   0.010 TIME LEFT:  2.00D  GRAD.:     0.609 HEAT: 7.271784
 CYCLE:    70 TIME:   0.010 TIME LEFT:  2.00D  GRAD.:     0.554 HEAT: 7.270900
 CYCLE:    71 TIME:   0.010 TIME LEFT:  2.00D  GRAD.:     0.459 HEAT: 7.270373
 CYCLE:    72 TIME:   0.010 TIME LEFT:  2.00D  GRAD.:     0.362 HEAT: 7.270011
 CYCLE:    73 TIME:   0.010 TIME LEFT:  2.00D  GRAD.:     0.323 HEAT: 7.269745
 CYCLE:    74 TIME:   0.010 TIME LEFT:  2.00D  GRAD.:     0.269 HEAT: 7.269538
 CYCLE:    75 TIME:   0.010 TIME LEFT:  2.00D  GRAD.:     0.184 HEAT: 7.269415
 CYCLE:    76 TIME:   0.010 TIME LEFT:  2.00D  GRAD.:     0.130 HEAT: 7.269359
 CYCLE:    77 TIME:   0.009 TIME LEFT:  2.00D  GRAD.:     0.106 HEAT: 7.269328
 CYCLE:    78 TIME:   0.010 TIME LEFT:  2.00D  GRAD.:     0.092 HEAT: 7.269306
 CYCLE:    79 TIME:   0.010 TIME LEFT:  2.00D  GRAD.:     0.113 HEAT: 7.269294
 CYCLE:    80 TIME:   0.009 TIME LEFT:  2.00D  GRAD.:     0.080 HEAT: 7.269277
 CYCLE:    81 TIME:   0.009 TIME LEFT:  2.00D  GRAD.:     0.070 HEAT: 7.269259
 CYCLE:    82 TIME:   0.009 TIME LEFT:  2.00D  GRAD.:     0.090 HEAT: 7.269245
 CYCLE:    83 TIME:   0.009 TIME LEFT:  2.00D  GRAD.:     0.075 HEAT: 7.269229
 CYCLE:    84 TIME:   0.009 TIME LEFT:  2.00D  GRAD.:     0.102 HEAT: 7.269193
 CYCLE:    85 TIME:   0.010 TIME LEFT:  2.00D  GRAD.:     0.120 HEAT: 7.269169
 CYCLE:    86 TIME:   0.009 TIME LEFT:  2.00D  GRAD.:     0.113 HEAT: 7.269122
 CYCLE:    87 TIME:   0.010 TIME LEFT:  2.00D  GRAD.:     0.092 HEAT: 7.269099
 CYCLE:    88 TIME:   0.010 TIME LEFT:  2.00D  GRAD.:     0.138 HEAT: 7.269049
 CYCLE:    89 TIME:   0.010 TIME LEFT:  2.00D  GRAD.:     0.106 HEAT: 7.269030
 CYCLE:    90 TIME:   0.010 TIME LEFT:  2.00D  GRAD.:     0.113 HEAT: 7.268990
 CYCLE:    91 TIME:   0.010 TIME LEFT:  2.00D  GRAD.:     0.096 HEAT: 7.268970
 CYCLE:    92 TIME:   0.010 TIME LEFT:  2.00D  GRAD.:     0.061 HEAT: 7.268950
 CYCLE:    93 TIME:   0.009 TIME LEFT:  2.00D  GRAD.:     0.058 HEAT: 7.268942
 CYCLE:    94 TIME:   0.010 TIME LEFT:  2.00D  GRAD.:     0.167 HEAT: 7.268954
 CYCLE:    95 TIME:   0.010 TIME LEFT:  2.00D  GRAD.:     0.065 HEAT: 7.268919
 CYCLE:    96 TIME:   0.009 TIME LEFT:  2.00D  GRAD.:     0.040 HEAT: 7.268911

     RMS GRADIENT =  0.03957  IS LESS THAN CUTOFF =  0.05000



 -------------------------------------------------------------------------------
pm3  precise nosym
 InChI=1S/C11H16/c1-2-9-5-3-6-10-7-4-8-11(9)10/h3-5,7,9-11H,2,6,8H2,1H3



     GEOMETRY OPTIMISED USING EIGENVECTOR FOLLOWING (EF).     
     SCF FIELD WAS ACHIEVED                                   


                              PM3 CALCULATION
                                                       MOPAC2012 (Version: 13.159M)
                                                       Mon Jun  2 11:09:45 2014
                                                       No. of days left =   6




          FINAL HEAT OF FORMATION =          7.26891 KCAL/MOL =      30.41312 KJ/MOL


          TOTAL ENERGY            =      -1550.05222 EV
          ELECTRONIC ENERGY       =      -9500.67182 EV  POINT GROUP:     C1  
          CORE-CORE REPULSION     =       7950.61959 EV
          COSMO AREA              =        196.01 SQUARE ANGSTROMS
          COSMO VOLUME            =        210.02 CUBIC ANGSTROMS

          GRADIENT NORM           =          0.03957
          IONIZATION POTENTIAL    =          9.613065 EV
          HOMO LUMO ENERGIES (EV) =         -9.613  1.056
          NO. OF FILLED LEVELS    =         30
          MOLECULAR WEIGHT        =        148.247

          MOLECULAR DIMENSIONS (Angstroms)

            Atom       Atom       Distance
            H    25    H    23     7.53604
            H    25    H    23     7.52697
            H    20    H    12     3.30366


          SCF CALCULATIONS        =        103
          COMPUTATION TIME        =          1.013 SECONDS




   ATOM   CHEMICAL          X               Y               Z
  NUMBER   SYMBOL      (ANGSTROMS)     (ANGSTROMS)     (ANGSTROMS)
 
     1       C         -0.51246394  *  -0.43192275  *   0.61148113  *
     2       C          0.77448531  *   0.10978020  *  -0.03188754  *
     3       C         -1.76089106  *   0.46505716  *   0.38395276  *
     4       C          1.99856846  *  -0.59607636  *   0.55787446  *
     5       C         -0.89725503  *  -1.82226638  *   0.05770899  *
     6       C         -1.50492558  *   1.71237680  *  -0.45921955  *
     7       C          3.23234838  *  -0.42355506  *  -0.29948076  *
     8       C         -2.76625885  *  -0.43646730  *  -0.27197682  *
     9       C          0.85967870  *   1.59255008  *   0.13187681  *
    10       C         -2.29716811  *  -1.67645285  *  -0.44115036  *
    11       C         -0.21771556  *   2.35094742  *  -0.08156294  *
    12       H         -0.33512883  *  -0.50870010  *   1.71022512  *
    13       H         -2.15899583  *   0.78684448  *   1.37558500  *
    14       H          0.73814843  *  -0.09050399  *  -1.13421322  *
    15       H          1.77599691  *  -1.67693824  *   0.67018700  *
    16       H          2.19139563  *  -0.22246265  *   1.58323645  *
    17       H         -0.22679540  *  -2.15578859  *  -0.75779530  *
    18       H         -0.83733171  *  -2.60260514  *   0.83885975  *
    19       H         -2.34836238  *   2.42001179  *  -0.34786996  *
    20       H         -1.46913631  *   1.45080215  *  -1.53705929  *
    21       H          3.08660890  *  -0.83395142  *  -1.30781199  *
    22       H          3.50476955  *   0.63438845  *  -0.41567923  *
    23       H          4.09614924  *  -0.93700053  *   0.14196374  *
    24       H         -2.82914689  *  -2.51784272  *  -0.88448729  *
    25       H         -3.75077981  *  -0.06570656  *  -0.55625490  *
    26       H         -0.18826679  *   3.44089701  *   0.00484725  *
    27       H          1.82726294  *   2.02323148  *   0.41089542  *

           Empirical Formula: C11 H16  =    27 atoms



      MOLECULAR POINT GROUP   :   C1  


                  EIGENVALUES  
 -42.64369 -36.18760 -34.16889 -29.50025 -27.41186 -25.52725 -23.21158 -21.10210
 -19.89149 -18.78435 -17.65467 -17.30240 -16.90771 -15.73296 -15.18188 -14.51395
 -14.34069 -14.28194 -13.74553 -13.41549 -13.31895 -13.01178 -12.42733 -12.36688
 -12.09298 -11.80352 -11.62482 -11.27529  -9.77007  -9.61306   1.05609   1.18509
   3.27509   3.33816   3.42100   3.58988   3.61971   3.73689   3.77222   3.86666
   3.94456   3.96034   4.04690   4.15554   4.15865   4.33157   4.39557   4.45223
   4.45606   4.59703   4.69209   4.85837   4.96041   4.97553   5.12854   5.36750
   5.53501   5.82889   5.97867   6.00207


              NET ATOMIC CHARGES AND DIPOLE CONTRIBUTIONS

  ATOM NO.   TYPE          CHARGE      No. of ELECS.   s-Pop       p-Pop       
    1          C          -0.072702        4.0727     1.18935     2.88335
    2          C          -0.041513        4.0415     1.16804     2.87347
    3          C          -0.040130        4.0401     1.17397     2.86616
    4          C          -0.098976        4.0990     1.16214     2.93683
    5          C          -0.070640        4.0706     1.15828     2.91236
    6          C          -0.055064        4.0551     1.14644     2.90862
    7          C          -0.111309        4.1113     1.13879     2.97252
    8          C          -0.157010        4.1570     1.20419     2.95282
    9          C          -0.148735        4.1487     1.19882     2.94992
   10          C          -0.149591        4.1496     1.20145     2.94814
   11          C          -0.151962        4.1520     1.19478     2.95718
   12          H           0.066722        0.9333     0.93328
   13          H           0.068703        0.9313     0.93130
   14          H           0.076981        0.9230     0.92302
   15          H           0.051497        0.9485     0.94850
   16          H           0.052776        0.9472     0.94722
   17          H           0.062290        0.9377     0.93771
   18          H           0.056316        0.9437     0.94368
   19          H           0.051916        0.9481     0.94808
   20          H           0.062090        0.9379     0.93791
   21          H           0.038474        0.9615     0.96153
   22          H           0.040121        0.9599     0.95988
   23          H           0.037307        0.9627     0.96269
   24          H           0.110527        0.8895     0.88947
   25          H           0.112617        0.8874     0.88738
   26          H           0.102017        0.8980     0.89798
   27          H           0.107277        0.8927     0.89272
 DIPOLE           X         Y         Z       TOTAL
 POINT-CHG.     0.098    -0.170    -0.045     0.201
 HYBRID        -0.006    -0.019    -0.010     0.022
 SUM            0.092    -0.189    -0.055     0.217


          ATOMIC ORBITAL ELECTRON POPULATIONS

    Atom      s        px        py        pz   
    1  C   1.18935   0.94030   0.94345   0.99960
    2  C   1.16804   0.94023   0.93351   0.99974
    3  C   1.17397   0.93805   0.94406   0.98405
    4  C   1.16214   0.94676   1.00260   0.98747
    5  C   1.15828   0.95211   0.96230   0.99796
    6  C   1.14644   0.95647   0.95993   0.99222
    7  C   1.13879   0.96973   1.01077   0.99201
    8  C   1.20419   0.98532   0.96026   1.00724
    9  C   1.19882   0.98170   0.95748   1.01074
   10  C   1.20145   0.97030   0.97358   1.00426
   11  C   1.19478   0.95775   0.98401   1.01542
   12  H   0.93328
   13  H   0.93130
   14  H   0.92302
   15  H   0.94850
   16  H   0.94722
   17  H   0.93771
   18  H   0.94368
   19  H   0.94808
   20  H   0.93791
   21  H   0.96153
   22  H   0.95988
   23  H   0.96269
   24  H   0.88947
   25  H   0.88738
   26  H   0.89798
   27  H   0.89272
 *******************************************************************************
 ** Site#: 14399           For non-commercial use only        Version 13.159M **
 *******************************************************************************
 ** Cite this work as: MOPAC2012, James J. P. Stewart, Stewart Computational  **
 ** Chemistry, Version 13.159M web: HTTP://OpenMOPAC.net  Days remaining:   6 **
 *******************************************************************************
 **                                                                           **
 **                                MOPAC2012                                  **
 **                                                                           **
 *******************************************************************************

                            PM3 CALCULATION RESULTS


 *******************************************************************************
 *  CALCULATION DONE:                                Mon Jun  2 11:09:45 2014  *
 *  PM3      - The PM3 Hamiltonian to be used
 *  OLDGEO   - PREVIOUS GEOMETRY TO BE USED
 *  PRECISE  - CRITERIA TO BE INCREASED BY 100 TIMES
 *  NOSYM    - POINT-GROUP SYMMETRY SET TO C1
 *  T=       - A TIME OF 172800.0 SECONDS REQUESTED
 *  DUMP=N   - RESTART FILE WRITTEN EVERY  7200.000 SECONDS
 *  THERMO   - THERMODYNAMIC QUANTITIES TO BE CALCULATED
 *******************************************************************************
oldgeo thermo nosym precise  pm3

   ATOM   CHEMICAL          X               Y               Z
  NUMBER   SYMBOL      (ANGSTROMS)     (ANGSTROMS)     (ANGSTROMS)
 
     1       C         -0.51246394  *  -0.43192275  *   0.61148113  *
     2       C          0.77448531  *   0.10978020  *  -0.03188754  *
     3       C         -1.76089106  *   0.46505716  *   0.38395276  *
     4       C          1.99856846  *  -0.59607636  *   0.55787446  *
     5       C         -0.89725503  *  -1.82226638  *   0.05770899  *
     6       C         -1.50492558  *   1.71237680  *  -0.45921955  *
     7       C          3.23234838  *  -0.42355506  *  -0.29948076  *
     8       C         -2.76625885  *  -0.43646730  *  -0.27197682  *
     9       C          0.85967870  *   1.59255008  *   0.13187681  *
    10       C         -2.29716811  *  -1.67645285  *  -0.44115036  *
    11       C         -0.21771556  *   2.35094742  *  -0.08156294  *
    12       H         -0.33512883  *  -0.50870010  *   1.71022512  *
    13       H         -2.15899583  *   0.78684448  *   1.37558500  *
    14       H          0.73814843  *  -0.09050399  *  -1.13421322  *
    15       H          1.77599691  *  -1.67693824  *   0.67018700  *
    16       H          2.19139563  *  -0.22246265  *   1.58323645  *
    17       H         -0.22679540  *  -2.15578859  *  -0.75779530  *
    18       H         -0.83733171  *  -2.60260514  *   0.83885975  *
    19       H         -2.34836238  *   2.42001179  *  -0.34786996  *
    20       H         -1.46913631  *   1.45080215  *  -1.53705929  *
    21       H          3.08660890  *  -0.83395142  *  -1.30781199  *
    22       H          3.50476955  *   0.63438845  *  -0.41567923  *
    23       H          4.09614924  *  -0.93700053  *   0.14196374  *
    24       H         -2.82914689  *  -2.51784272  *  -0.88448729  *
    25       H         -3.75077981  *  -0.06570656  *  -0.55625490  *
    26       H         -0.18826679  *   3.44089701  *   0.00484725  *
    27       H          1.82726294  *   2.02323148  *   0.41089542  *
 


          CARTESIAN COORDINATES 

    NO.       ATOM         X         Y         Z

     1         C       -0.5125   -0.4319    0.6115
     2         C        0.7745    0.1098   -0.0319
     3         C       -1.7609    0.4651    0.3840
     4         C        1.9986   -0.5961    0.5579
     5         C       -0.8973   -1.8223    0.0577
     6         C       -1.5049    1.7124   -0.4592
     7         C        3.2323   -0.4236   -0.2995
     8         C       -2.7663   -0.4365   -0.2720
     9         C        0.8597    1.5926    0.1319
    10         C       -2.2972   -1.6765   -0.4412
    11         C       -0.2177    2.3509   -0.0816
    12         H       -0.3351   -0.5087    1.7102
    13         H       -2.1590    0.7868    1.3756
    14         H        0.7381   -0.0905   -1.1342
    15         H        1.7760   -1.6769    0.6702
    16         H        2.1914   -0.2225    1.5832
    17         H       -0.2268   -2.1558   -0.7578
    18         H       -0.8373   -2.6026    0.8389
    19         H       -2.3484    2.4200   -0.3479
    20         H       -1.4691    1.4508   -1.5371
    21         H        3.0866   -0.8340   -1.3078
    22         H        3.5048    0.6344   -0.4157
    23         H        4.0961   -0.9370    0.1420
    24         H       -2.8291   -2.5178   -0.8845
    25         H       -3.7508   -0.0657   -0.5563
    26         H       -0.1883    3.4409    0.0048
    27         H        1.8273    2.0232    0.4109

  H: (PM3): J. J. P. STEWART, J. COMP. CHEM. 10, 209 (1989).
  C: (PM3): J. J. P. STEWART, J. COMP. CHEM. 10, 209 (1989).

           Empirical Formula: C11 H16  =    27 atoms



      MOLECULAR POINT GROUP   :   C1  


      RHF CALCULATION, NO. OF DOUBLY OCCUPIED LEVELS =   30



          HEAT OF FORMATION =       7.268911 KCALS/MOLE


          INTERNAL COORDINATE DERIVATIVES

   NUMBER  ATOM       BOND         ANGLE      DIHEDRAL

     1       C     -0.000135    -0.002886    -0.001138
     2       C      0.003424    -0.005997     0.004465
     3       C      0.001809    -0.001642    -0.001932
     4       C      0.005438    -0.003182     0.007105
     5       C     -0.006108     0.005204    -0.000117
     6       C      0.001237    -0.002289    -0.000444
     7       C      0.000636    -0.003359     0.003832
     8       C     -0.001485     0.005869    -0.002479
     9       C      0.001937    -0.003904     0.001294
    10       C     -0.003425     0.003372     0.001129
    11       C     -0.001842    -0.000379    -0.004947
    12       H      0.001196    -0.007621    -0.001924
    13       H      0.008356    -0.009568     0.001566
    14       H      0.001954    -0.007615     0.001604
    15       H     -0.000129    -0.001988     0.003415
    16       H      0.011103    -0.002603     0.007687
    17       H     -0.001283     0.008112     0.000809
    18       H     -0.008828     0.001184    -0.004849
    19       H     -0.004850    -0.000692    -0.003656
    20       H      0.001143     0.002032     0.000215
    21       H     -0.007102     0.006585    -0.001622
    22       H     -0.005508     0.005319    -0.000557
    23       H      0.005595    -0.005098    -0.001047
    24       H      0.000501     0.003774    -0.003522
    25       H     -0.002474     0.006543    -0.001564
    26       H     -0.007008     0.006081    -0.005012
    27       H      0.005849     0.004750     0.001688


          GRADIENT NORM =   0.03954


          TIME FOR SCF CALCULATION =    0.01

          TIME FOR DERIVATIVES     =    0.01

          MOLECULAR WEIGHT =  148.25



          ROTATIONAL CONSTANTS IN CM(-1)

          A =    0.05678869   B =    0.03143895   C =    0.02191571



           PRINCIPAL MOMENTS OF INERTIA IN UNITS OF 10**(-40)*GRAM-CM**2

          A =      492.9287   B =      890.3853   C =     1277.2925


          ORIENTATION OF MOLECULE IN FORCE CALCULATION

    NO.       ATOM         X         Y         Z

     1          C      -0.6622   -0.4557    0.1963
     2          C       0.8752   -0.4557    0.1963
     3          C      -1.2960    0.9632    0.1963
     4          C       1.4044   -1.8372    0.5913
     5          C      -1.2424   -1.1665   -1.0470
     6          C      -0.2894    2.1113    0.1687
     7          C       2.8567   -2.0274    0.2151
     8          C      -2.1807    0.9878   -1.0163
     9          C       1.4005    0.6151    1.0965
    10          C      -2.1541   -0.1698   -1.6837
    11          C       0.8551    1.8331    1.0742
    12          H      -1.0006   -0.9876    1.1167
    13          H      -1.9308    1.0743    1.1073
    14          H       1.2355   -0.2126   -0.8370
    15          H       0.7902   -2.6170    0.0961
    16          H       1.2684   -1.9958    1.6796
    17          H      -0.4574   -1.4858   -1.7595
    18          H      -1.7941   -2.0842   -0.7711
    19          H      -0.7926    3.0581    0.4422
    20          H       0.0995    2.2610   -0.8598
    21          H       3.0121   -1.9276   -0.8676
    22          H       3.5062   -1.2896    0.7058
    23          H       3.2142   -3.0232    0.5073
    24          H      -2.7104   -0.4110   -2.5891
    25          H      -2.7552    1.8774   -1.2734
    26          H       1.2277    2.6488    1.7005
    27          H       2.2454    0.3687    1.7483


    FIRST DERIVATIVES WILL BE USED IN THE CALCULATION OF SECOND DERIVATIVES

          ESTIMATED TIME TO COMPLETE CALCULATION =        4.69 SECONDS

    FOR POINT-GROUP C1   THERE ARE   1 UNIQUE SYMMETRY FUNCTIONS.

 STEP:   1 TIME =     0.04 SECS, INTEGRAL =      0.04 TIME LEFT: 172799.94
 STEP:   2 TIME =     0.04 SECS, INTEGRAL =      0.09 TIME LEFT: 172799.90
 STEP:   3 TIME =     0.04 SECS, INTEGRAL =      0.13 TIME LEFT: 172799.85
 STEP:   4 TIME =     0.04 SECS, INTEGRAL =      0.18 TIME LEFT: 172799.81
 STEP:   5 TIME =     0.04 SECS, INTEGRAL =      0.22 TIME LEFT: 172799.76
 STEP:   6 TIME =     0.04 SECS, INTEGRAL =      0.27 TIME LEFT: 172799.72
 STEP:   7 TIME =     0.04 SECS, INTEGRAL =      0.31 TIME LEFT: 172799.67
 STEP:   8 TIME =     0.04 SECS, INTEGRAL =      0.36 TIME LEFT: 172799.63
 STEP:   9 TIME =     0.05 SECS, INTEGRAL =      0.40 TIME LEFT: 172799.58
 STEP:  10 TIME =     0.04 SECS, INTEGRAL =      0.45 TIME LEFT: 172799.54
 STEP:  11 TIME =     0.04 SECS, INTEGRAL =      0.49 TIME LEFT: 172799.50
 STEP:  12 TIME =     0.04 SECS, INTEGRAL =      0.53 TIME LEFT: 172799.45
 STEP:  13 TIME =     0.04 SECS, INTEGRAL =      0.58 TIME LEFT: 172799.41
 STEP:  14 TIME =     0.04 SECS, INTEGRAL =      0.62 TIME LEFT: 172799.36
 STEP:  15 TIME =     0.04 SECS, INTEGRAL =      0.67 TIME LEFT: 172799.32
 STEP:  16 TIME =     0.05 SECS, INTEGRAL =      0.71 TIME LEFT: 172799.27
 STEP:  17 TIME =     0.04 SECS, INTEGRAL =      0.76 TIME LEFT: 172799.23
 STEP:  18 TIME =     0.04 SECS, INTEGRAL =      0.80 TIME LEFT: 172799.19
 STEP:  19 TIME =     0.04 SECS, INTEGRAL =      0.84 TIME LEFT: 172799.14
 STEP:  20 TIME =     0.04 SECS, INTEGRAL =      0.89 TIME LEFT: 172799.10
 STEP:  21 TIME =     0.04 SECS, INTEGRAL =      0.93 TIME LEFT: 172799.06
 STEP:  22 TIME =     0.05 SECS, INTEGRAL =      0.98 TIME LEFT: 172799.01
 STEP:  23 TIME =     0.05 SECS, INTEGRAL =      1.02 TIME LEFT: 172798.96
 STEP:  24 TIME =     0.05 SECS, INTEGRAL =      1.07 TIME LEFT: 172798.92
 STEP:  25 TIME =     0.05 SECS, INTEGRAL =      1.11 TIME LEFT: 172798.87
 STEP:  26 TIME =     0.04 SECS, INTEGRAL =      1.16 TIME LEFT: 172798.83
 STEP:  27 TIME =     0.05 SECS, INTEGRAL =      1.20 TIME LEFT: 172798.78
 STEP:  28 TIME =     0.04 SECS, INTEGRAL =      1.25 TIME LEFT: 172798.74
 STEP:  29 TIME =     0.04 SECS, INTEGRAL =      1.29 TIME LEFT: 172798.69
 STEP:  30 TIME =     0.05 SECS, INTEGRAL =      1.34 TIME LEFT: 172798.65
 STEP:  31 TIME =     0.04 SECS, INTEGRAL =      1.38 TIME LEFT: 172798.60
 STEP:  32 TIME =     0.05 SECS, INTEGRAL =      1.43 TIME LEFT: 172798.56
 STEP:  33 TIME =     0.05 SECS, INTEGRAL =      1.47 TIME LEFT: 172798.51
 STEP:  34 TIME =     0.05 SECS, INTEGRAL =      1.52 TIME LEFT: 172798.47
 STEP:  35 TIME =     0.05 SECS, INTEGRAL =      1.57 TIME LEFT: 172798.42
 STEP:  36 TIME =     0.04 SECS, INTEGRAL =      1.61 TIME LEFT: 172798.37
 STEP:  37 TIME =     0.05 SECS, INTEGRAL =      1.66 TIME LEFT: 172798.33
 STEP:  38 TIME =     0.05 SECS, INTEGRAL =      1.70 TIME LEFT: 172798.28
 STEP:  39 TIME =     0.05 SECS, INTEGRAL =      1.75 TIME LEFT: 172798.24
 STEP:  40 TIME =     0.05 SECS, INTEGRAL =      1.79 TIME LEFT: 172798.19
 STEP:  41 TIME =     0.05 SECS, INTEGRAL =      1.84 TIME LEFT: 172798.15
 STEP:  42 TIME =     0.04 SECS, INTEGRAL =      1.88 TIME LEFT: 172798.10
 STEP:  43 TIME =     0.05 SECS, INTEGRAL =      1.93 TIME LEFT: 172798.06
 STEP:  44 TIME =     0.04 SECS, INTEGRAL =      1.97 TIME LEFT: 172798.01
 STEP:  45 TIME =     0.05 SECS, INTEGRAL =      2.02 TIME LEFT: 172797.97
 STEP:  46 TIME =     0.05 SECS, INTEGRAL =      2.07 TIME LEFT: 172797.92
 STEP:  47 TIME =     0.05 SECS, INTEGRAL =      2.12 TIME LEFT: 172797.87
 STEP:  48 TIME =     0.04 SECS, INTEGRAL =      2.16 TIME LEFT: 172797.83
 STEP:  49 TIME =     0.04 SECS, INTEGRAL =      2.20 TIME LEFT: 172797.78
 STEP:  50 TIME =     0.05 SECS, INTEGRAL =      2.25 TIME LEFT: 172797.74
 STEP:  51 TIME =     0.05 SECS, INTEGRAL =      2.30 TIME LEFT: 172797.69
 STEP:  52 TIME =     0.05 SECS, INTEGRAL =      2.34 TIME LEFT: 172797.64
 STEP:  53 TIME =     0.04 SECS, INTEGRAL =      2.39 TIME LEFT: 172797.60
 STEP:  54 TIME =     0.05 SECS, INTEGRAL =      2.43 TIME LEFT: 172797.55
 STEP:  55 TIME =     0.05 SECS, INTEGRAL =      2.48 TIME LEFT: 172797.51
 STEP:  56 TIME =     0.04 SECS, INTEGRAL =      2.52 TIME LEFT: 172797.46
 STEP:  57 TIME =     0.05 SECS, INTEGRAL =      2.57 TIME LEFT: 172797.42
 STEP:  58 TIME =     0.05 SECS, INTEGRAL =      2.61 TIME LEFT: 172797.37
 STEP:  59 TIME =     0.05 SECS, INTEGRAL =      2.66 TIME LEFT: 172797.33
 STEP:  60 TIME =     0.04 SECS, INTEGRAL =      2.70 TIME LEFT: 172797.28
 STEP:  61 TIME =     0.05 SECS, INTEGRAL =      2.75 TIME LEFT: 172797.24
 STEP:  62 TIME =     0.05 SECS, INTEGRAL =      2.80 TIME LEFT: 172797.19
 STEP:  63 TIME =     0.05 SECS, INTEGRAL =      2.84 TIME LEFT: 172797.14
 STEP:  64 TIME =     0.05 SECS, INTEGRAL =      2.89 TIME LEFT: 172797.10
 STEP:  65 TIME =     0.05 SECS, INTEGRAL =      2.94 TIME LEFT: 172797.04
 STEP:  66 TIME =     0.05 SECS, INTEGRAL =      2.99 TIME LEFT: 172797.00
 STEP:  67 TIME =     0.05 SECS, INTEGRAL =      3.03 TIME LEFT: 172796.95
 STEP:  68 TIME =     0.04 SECS, INTEGRAL =      3.08 TIME LEFT: 172796.91
 STEP:  69 TIME =     0.05 SECS, INTEGRAL =      3.12 TIME LEFT: 172796.86
 STEP:  70 TIME =     0.05 SECS, INTEGRAL =      3.17 TIME LEFT: 172796.82
 STEP:  71 TIME =     0.05 SECS, INTEGRAL =      3.21 TIME LEFT: 172796.77
 STEP:  72 TIME =     0.05 SECS, INTEGRAL =      3.26 TIME LEFT: 172796.73
 STEP:  73 TIME =     0.05 SECS, INTEGRAL =      3.31 TIME LEFT: 172796.68
 STEP:  74 TIME =     0.04 SECS, INTEGRAL =      3.35 TIME LEFT: 172796.64
 STEP:  75 TIME =     0.06 SECS, INTEGRAL =      3.41 TIME LEFT: 172796.58
 STEP:  76 TIME =     0.05 SECS, INTEGRAL =      3.46 TIME LEFT: 172796.53
 STEP:  77 TIME =     0.05 SECS, INTEGRAL =      3.51 TIME LEFT: 172796.48
 STEP:  78 TIME =     0.05 SECS, INTEGRAL =      3.56 TIME LEFT: 172796.43
 STEP:  79 TIME =     0.05 SECS, INTEGRAL =      3.60 TIME LEFT: 172796.38
 STEP:  80 TIME =     0.05 SECS, INTEGRAL =      3.65 TIME LEFT: 172796.34
 STEP:  81 TIME =     0.05 SECS, INTEGRAL =      3.69 TIME LEFT: 172796.29

(To convert to Hartree/Bohr^2, multiply by (10^(-21) x N x a0^2)/(4.184 x 627.51) = 0.0642)


           FORCE MATRIX IN MILLIDYNES/ANGSTROM


                  C  1       C  2       C  3       C  4       C  5       C  6
 ------------------------------------------------------------------------------
     C    1  13.966734
     C    2   3.589673  14.536302
     C    3   3.195630   0.531172  14.546469
     C    4   0.620975   3.831444   0.045983  14.333874
     C    5   3.469408   0.569172   0.705962   0.045955  14.619359
     C    6   0.532167   0.126875   3.894294   0.004768   0.032594  14.731927
     C    7   0.050304   0.624371   0.008341   4.459503   0.002706   0.000989
     C    8   0.830360   0.029998   4.516989   0.005209   1.187959   0.655540
     C    9   0.676271   4.696920   0.083020   0.665794   0.047831   0.936830
     C   10   0.855135   0.031888   1.148263   0.002627   4.788934   0.040822
     C   11   0.079702   0.900828   0.717352   0.054445   0.002595   5.016228
     H   12   4.283618   0.432783   0.420699   0.057887   0.424006   0.028035
     H   13   0.420093   0.027358   4.257292   0.003754   0.026592   0.429316
     H   14   0.436753   4.093715   0.011174   0.431871   0.045817   0.022607
     H   15   0.059835   0.437416   0.002236   4.420809   0.016827   0.001123
     H   16   0.018859   0.449676   0.001032   4.455625   0.001809   0.000524
     H   17   0.445167   0.061169   0.027329   0.011042   4.466311   0.002131
     H   18   0.432644   0.025487   0.028905   0.003633   4.514805   0.004113
     H   19   0.043107   0.005293   0.433614   0.000648   0.003977   4.506061
     H   20   0.009669   0.024387   0.456862   0.001501   0.001287   4.390385
     H   21   0.001858   0.024196   0.000408   0.463391   0.000507   0.000413
     H   22   0.001709   0.017988   0.000287   0.465021   0.000331   0.000409
     H   23   0.008651   0.050451   0.001640   0.449131   0.000537   0.000301
     H   24   0.042456   0.003622   0.113365   0.000588   0.412633   0.015542
     H   25   0.040721   0.003213   0.413904   0.001151   0.113973   0.012065
     H   26   0.010657   0.117622   0.035059   0.008100   0.001388   0.428708
     H   27   0.032923   0.436341   0.009994   0.045299   0.005818   0.118874


                  C  7       C  8       C  9       C 10       C 11       H 12
 ------------------------------------------------------------------------------
     C    7  14.350217
     C    8   0.001375  18.415298
     C    9   0.048447   0.002916  18.265919
     C   10   0.001190  10.639092   0.005957  18.425951
     C   11   0.002175   0.048911  10.647698   0.007807  18.232840
     H   12   0.001902   0.026635   0.009742   0.025986   0.004201   4.729404
     H   13   0.000983   0.404435   0.004121   0.037754   0.009859   0.019959
     H   14   0.042893   0.001064   0.388773   0.001844   0.038634   0.039533
     H   15   0.435566   0.001041   0.049030   0.001145   0.009431   0.015713
     H   16   0.438379   0.000424   0.031831   0.000374   0.003263   0.020146
     H   17   0.001315   0.037720   0.002533   0.427294   0.000950   0.026716
     H   18   0.000575   0.038534   0.004911   0.430674   0.001044   0.028468
     H   19   0.000282   0.013601   0.051331   0.001568   0.442390   0.003599
     H   20   0.000385   0.040239   0.033189   0.003533   0.412823   0.001177
     H   21   4.721879   0.000279   0.002224   0.000498   0.000916   0.000494
     H   22   4.704928   0.000367   0.015233   0.000558   0.000845   0.000411
     H   23   4.748008   0.000472   0.002805   0.000338   0.000474   0.000536
     H   24   0.000282   0.449849   0.001459   5.016079   0.002551   0.002803
     H   25   0.000418   5.014566   0.001446   0.449582   0.001704   0.002726
     H   26   0.000662   0.006828   0.446624   0.001456   4.887551   0.000482
     H   27   0.016513   0.001197   4.836804   0.000968   0.444415   0.001078


                  H 13       H 14       H 15       H 16       H 17       H 18
 ------------------------------------------------------------------------------
     H   13   4.700230
     H   14   0.001128   4.565824
     H   15   0.000329   0.017084   5.038119
     H   16   0.000248   0.041858   0.566614   5.074644
     H   17   0.003288   0.025996   0.020956   0.000570   5.087673
     H   18   0.001049   0.001627   0.004656   0.000354   0.573341   5.120917
     H   19   0.037220   0.001335   0.000220   0.000204   0.000402   0.000861
     H   20   0.041856   0.012664   0.000266   0.000458   0.000550   0.000521
     H   21   0.000147   0.026747   0.026115   0.047951   0.000864   0.000123
     H   22   0.000059   0.002652   0.048228   0.023231   0.000295   0.000263
     H   23   0.000248   0.002317   0.030986   0.030600   0.000209   0.000136
     H   24   0.014558   0.000531   0.000350   0.000170   0.015249   0.014794
     H   25   0.014344   0.000578   0.000242   0.000103   0.015208   0.015346
     H   26   0.001071   0.012793   0.001636   0.000617   0.000210   0.000271
     H   27   0.000534   0.016083   0.002479   0.021542   0.000592   0.000788


                  H 19       H 20       H 21       H 22       H 23       H 24
 ------------------------------------------------------------------------------
     H   19   5.097333
     H   20   0.565816   4.993719
     H   21   0.000080   0.000124   5.463949
     H   22   0.000087   0.000148   0.576157   5.448366
     H   23   0.000104   0.000123   0.573264   0.572574   5.486157
     H   24   0.000493   0.000876   0.000126   0.000098   0.000155   5.412125
     H   25   0.004077   0.003623   0.000094   0.000075   0.000121   0.046974
     H   26   0.033789   0.017317   0.000224   0.000439   0.000190   0.000549
     H   27   0.008394   0.014102   0.001025   0.020678   0.001199   0.000370


                  H 25       H 26       H 27
 ------------------------------------------
     H   25   5.411527
     H   26   0.000647   5.263944
     H   27   0.000340   0.064228   5.221532


          HEAT OF FORMATION =       7.268911 KCALS/MOLE

          ZERO POINT ENERGY     150.618 KCAL/MOL


           NORMAL COORDINATE ANALYSIS (Total motion = 1 Angstrom)


   Root No.       1         2         3         4         5         6         7         8

                 1 A       2 A       3 A       4 A       5 A       6 A       7 A       8 A   

                  73.2      99.8     127.1     191.1     218.6     267.0     293.0     353.6
  
           1    0.0064    0.0079    0.0022   -0.0070   -0.0182   -0.0037   -0.0062    0.0016
           2   -0.0050    0.0000   -0.0008   -0.0069   -0.0166    0.0026    0.0047    0.0023
           3   -0.0189   -0.0052   -0.0003   -0.0027    0.0128    0.0232    0.0028   -0.0037
           4    0.0067    0.0076    0.0022   -0.0067   -0.0188   -0.0054   -0.0124   -0.0008
           5   -0.0057    0.0041   -0.0010   -0.0111   -0.0194    0.0105   -0.0066    0.0164
           6   -0.0103    0.0123   -0.0207   -0.0026    0.0172    0.0057    0.0146   -0.0265
           7    0.0014   -0.0032   -0.0095    0.0016   -0.0075   -0.0113    0.0049   -0.0012
           8   -0.0075   -0.0057   -0.0066   -0.0020   -0.0106   -0.0024    0.0083   -0.0057
           9    0.0102    0.0051    0.0071    0.0008    0.0173    0.0225   -0.0112    0.0050
          10   -0.0006    0.0007   -0.0035    0.0080    0.0059   -0.0233   -0.0214   -0.0278
          11   -0.0050    0.0075    0.0023   -0.0026   -0.0058   -0.0071   -0.0116    0.0227
          12    0.0028    0.0362    0.0032    0.0068    0.0288   -0.0390    0.0004    0.0112
          13    0.0116    0.0290   -0.0088   -0.0164   -0.0062    0.0250    0.0246    0.0065
          14    0.0192    0.0099   -0.0070    0.0011    0.0043    0.0015    0.0004   -0.0060
          15   -0.0352   -0.0210    0.0078   -0.0031   -0.0065    0.0113   -0.0095   -0.0017
          16   -0.0013   -0.0126   -0.0324    0.0065   -0.0027   -0.0058    0.0045    0.0215
          17   -0.0059    0.0021    0.0136   -0.0062   -0.0138   -0.0061    0.0115   -0.0260
          18   -0.0086    0.0021    0.0458    0.0000   -0.0071   -0.0116    0.0195   -0.0002
          19    0.0115   -0.0219   -0.0014    0.0116    0.0022   -0.0146   -0.0183   -0.0336
          20   -0.0027   -0.0339   -0.0138    0.0241    0.0318   -0.0062    0.0277    0.0287
          21    0.0487   -0.0292    0.0210    0.0036   -0.0099    0.0017   -0.0047    0.0042
          22   -0.0294   -0.0102    0.0138    0.0037    0.0037   -0.0038    0.0046   -0.0027
          23    0.0006   -0.0076    0.0023    0.0100    0.0079   -0.0115   -0.0088   -0.0103
          24    0.0329    0.0099   -0.0104   -0.0003    0.0093    0.0165   -0.0127    0.0054
          25    0.0073    0.0023    0.0209   -0.0036   -0.0003    0.0007    0.0073    0.0329
          26   -0.0010    0.0154    0.0082   -0.0130   -0.0076    0.0084   -0.0093   -0.0001
          27   -0.0165    0.0014   -0.0440   -0.0011   -0.0091    0.0026    0.0029   -0.0264
          28   -0.0236    0.0080    0.0158   -0.0038    0.0238    0.0412   -0.0133    0.0084
          29    0.0150    0.0011    0.0029    0.0125    0.0246    0.0026   -0.0234   -0.0062
          30    0.0082   -0.0046   -0.0112   -0.0045   -0.0180   -0.0063    0.0107   -0.0026
          31    0.0067   -0.0061    0.0058    0.0032    0.0141    0.0032    0.0256   -0.0028
          32   -0.0014    0.0116    0.0014   -0.0105   -0.0023    0.0103   -0.0018   -0.0165
          33   -0.0175   -0.0032   -0.0083    0.0014   -0.0280   -0.0170   -0.0091    0.0356
          34    0.0009   -0.0018    0.0158   -0.0076   -0.0282   -0.0006   -0.0265    0.0137
          35   -0.0243   -0.0123   -0.0004   -0.0080   -0.0271   -0.0036    0.0088   -0.0015
          36   -0.0318   -0.0156    0.0052   -0.0037    0.0023    0.0204   -0.0025   -0.0012
          37    0.0262    0.0021   -0.0315    0.0027   -0.0020   -0.0031   -0.0095    0.0041
          38   -0.0159   -0.0142   -0.0320   -0.0003   -0.0028    0.0089    0.0087    0.0024
          39    0.0285    0.0098   -0.0048    0.0012    0.0194    0.0259   -0.0205    0.0073
          40    0.0141    0.0182   -0.0072   -0.0069   -0.0283   -0.0152   -0.0097   -0.0120
          41   -0.0147   -0.0090   -0.0221   -0.0151   -0.0308    0.0269   -0.0054    0.0005
          42   -0.0098    0.0129   -0.0284   -0.0034    0.0101    0.0055    0.0145   -0.0340
          43    0.0154   -0.0370   -0.0028    0.0186    0.0094   -0.0117   -0.0121   -0.0331
          44   -0.0040    0.0008   -0.0028   -0.0176   -0.0233    0.0172   -0.0078    0.0098
          45   -0.0185    0.0931    0.0101    0.0185    0.0530   -0.0930   -0.0169    0.0384
          46   -0.0339    0.0501   -0.0138    0.0145    0.0365   -0.0614   -0.0252   -0.0245
          47   -0.0072    0.0481    0.0199    0.0081    0.0049   -0.0525   -0.0318    0.0567
          48   -0.0017    0.0482    0.0046    0.0093    0.0338   -0.0505   -0.0035    0.0171
          49    0.0127    0.0395   -0.0135   -0.0200    0.0032    0.0396    0.0395    0.0075
          50    0.0662    0.0433   -0.0385   -0.0117   -0.0089   -0.0012    0.0618   -0.0105
          51   -0.0551   -0.0244    0.0169   -0.0011    0.0099    0.0281   -0.0222    0.0012
          52    0.0422    0.0510   -0.0328   -0.0306   -0.0330    0.0158    0.0773    0.0055
          53   -0.0063   -0.0093    0.0112    0.0097    0.0146    0.0030   -0.0372   -0.0045
          54   -0.0593   -0.0411    0.0206   -0.0026   -0.0255   -0.0020   -0.0317    0.0015
          55    0.0004   -0.0193   -0.0464    0.0101    0.0030    0.0012    0.0028    0.0342
          56   -0.0049   -0.0024   -0.0131   -0.0035   -0.0107    0.0027   -0.0031   -0.0033
          57   -0.0089    0.0055    0.1142   -0.0025   -0.0071   -0.0298    0.0686   -0.0594
          58   -0.0122   -0.0183   -0.0665    0.0087   -0.0211   -0.0160   -0.0151    0.0610
          59   -0.0118    0.0066    0.0823   -0.0098   -0.0237   -0.0336    0.0584   -0.0815
          60   -0.0135    0.0007    0.0428    0.0002   -0.0159   -0.0198    0.0194    0.0059
          61    0.0458   -0.0765    0.0102   -0.0268   -0.0181    0.0080   -0.0269   -0.0420
          62    0.0002   -0.0912   -0.0316   -0.1691    0.1071   -0.0552    0.0338    0.0414
          63    0.0538   -0.0422    0.0211   -0.0194   -0.0062    0.0006   -0.0056    0.0039
          64   -0.0039    0.0137    0.0001   -0.0245    0.0039   -0.0353   -0.0388   -0.0331
          65   -0.0038   -0.0185   -0.0117    0.1615    0.0052    0.0254    0.0484    0.0270
          66    0.0710   -0.0999    0.0161   -0.1547    0.0281   -0.0184   -0.0079    0.0070
          67    0.0028   -0.0219   -0.0122    0.0878    0.0185   -0.0090    0.0147   -0.0274
          68   -0.0032   -0.0247   -0.0121    0.1036    0.0160    0.0120    0.0392    0.0277
          69    0.0576    0.0025    0.0401    0.1812   -0.0847    0.0572   -0.0074   -0.0085
          70   -0.0397    0.0090    0.0311   -0.0024    0.0520    0.0773   -0.0415    0.0148
          71    0.0239    0.0025    0.0091    0.0210    0.0476    0.0113   -0.0446   -0.0034
          72    0.0157   -0.0056   -0.0222   -0.0077   -0.0414   -0.0308    0.0336   -0.0073
          73   -0.0515   -0.0274    0.0268    0.0125    0.0066   -0.0222    0.0023   -0.0121
          74   -0.0044   -0.0148    0.0078    0.0163    0.0125   -0.0222   -0.0134   -0.0152
          75    0.0650    0.0233   -0.0207    0.0016    0.0183    0.0211   -0.0238    0.0097
          76    0.0106   -0.0069    0.0281    0.0057    0.0371    0.0075    0.0580   -0.0423
          77    0.0008    0.0173   -0.0037   -0.0136    0.0091    0.0215    0.0023   -0.0319
          78   -0.0227   -0.0100   -0.0143    0.0038   -0.0566   -0.0344   -0.0332    0.0780
          79    0.0110    0.0087    0.0536   -0.0062    0.0079   -0.0017    0.0128    0.0596
          80    0.0027    0.0263    0.0184   -0.0162   -0.0009    0.0093   -0.0128   -0.0070
          81   -0.0196   -0.0027   -0.0818    0.0016   -0.0170    0.0052   -0.0053   -0.0633


   Root No.       9        10        11        12        13        14        15        16

                 9 A      10 A      11 A      12 A      13 A      14 A      15 A      16 A   

                 402.1     440.7     459.4     499.5     544.0     682.5     730.3     743.0
  
           1   -0.0115    0.0180    0.0081   -0.0258   -0.0248   -0.0053    0.0082    0.0045
           2    0.0268    0.0145   -0.0140   -0.0060   -0.0164   -0.0198   -0.0101   -0.0079
           3    0.0244   -0.0180    0.0066    0.0086    0.0039    0.0294    0.0306   -0.0080
           4   -0.0042    0.0100   -0.0027   -0.0290   -0.0250   -0.0018    0.0067   -0.0120
           5   -0.0197   -0.0102   -0.0195    0.0105   -0.0090    0.0082   -0.0067   -0.0026
           6    0.0003   -0.0148   -0.0197   -0.0320    0.0248    0.0130   -0.0241   -0.0002
           7   -0.0279    0.0131    0.0256   -0.0002    0.0220    0.0299    0.0138    0.0074
           8    0.0289    0.0152   -0.0011    0.0097    0.0097   -0.0185   -0.0264   -0.0055
           9   -0.0064   -0.0103    0.0146    0.0096   -0.0111   -0.0289   -0.0153   -0.0249
          10    0.0180   -0.0081   -0.0097    0.0122    0.0067   -0.0002   -0.0028   -0.0005
          11   -0.0165   -0.0119   -0.0186    0.0398   -0.0111    0.0238   -0.0168    0.0063
          12    0.0039    0.0094    0.0026   -0.0067   -0.0036   -0.0050   -0.0010   -0.0048
          13    0.0221    0.0024    0.0169    0.0088   -0.0100   -0.0029   -0.0013    0.0219
          14    0.0255   -0.0064   -0.0047   -0.0098   -0.0164    0.0106    0.0354   -0.0039
          15    0.0170    0.0068    0.0023   -0.0042   -0.0160    0.0098    0.0227    0.0062
          16   -0.0052    0.0034   -0.0102    0.0149    0.0198   -0.0008    0.0099   -0.0057
          17    0.0036    0.0279    0.0251    0.0089    0.0259   -0.0013   -0.0168   -0.0170
          18   -0.0056   -0.0017   -0.0177    0.0059    0.0040   -0.0237    0.0126    0.0054
          19    0.0229   -0.0089   -0.0094    0.0098    0.0119   -0.0062   -0.0024   -0.0009
          20   -0.0085    0.0111    0.0066   -0.0086   -0.0092    0.0037   -0.0022    0.0012
          21   -0.0013   -0.0009   -0.0009    0.0054   -0.0022    0.0011    0.0006    0.0001
          22   -0.0235   -0.0272    0.0446    0.0041   -0.0075   -0.0026   -0.0104   -0.0030
          23    0.0067   -0.0160    0.0130   -0.0092   -0.0170    0.0047   -0.0042    0.0310
          24   -0.0139    0.0200    0.0134    0.0071    0.0110    0.0016   -0.0146   -0.0080
          25    0.0105   -0.0150   -0.0332   -0.0292    0.0018    0.0245   -0.0238   -0.0205
          26   -0.0154   -0.0156    0.0034   -0.0218    0.0247   -0.0061    0.0132   -0.0061
          27   -0.0237    0.0033   -0.0306   -0.0012   -0.0214    0.0061   -0.0151    0.0029
          28    0.0063    0.0212    0.0088    0.0104    0.0036   -0.0009   -0.0114    0.0235
          29   -0.0008   -0.0003    0.0033   -0.0085   -0.0043    0.0114    0.0036    0.0141
          30    0.0006   -0.0076    0.0307    0.0036   -0.0132   -0.0050   -0.0240    0.0237
          31   -0.0201   -0.0009   -0.0383    0.0187   -0.0007   -0.0155    0.0190   -0.0111
          32   -0.0285   -0.0093    0.0033   -0.0034    0.0267   -0.0270    0.0348   -0.0030
          33    0.0065   -0.0040   -0.0007   -0.0033    0.0310   -0.0135    0.0145    0.0081
          34   -0.0162    0.0212    0.0072   -0.0246   -0.0609   -0.0160    0.0436   -0.0058
          35    0.0420    0.0302   -0.0134   -0.0079   -0.0125   -0.0076   -0.0034    0.0078
          36    0.0301   -0.0066    0.0065    0.0068   -0.0082    0.0323    0.0480   -0.0019
          37   -0.0394    0.0382    0.0345    0.0030    0.0389    0.0419   -0.0100   -0.0051
          38    0.0472    0.0057   -0.0027    0.0285    0.0317   -0.0002   -0.0276   -0.0287
          39   -0.0169    0.0091    0.0209    0.0092   -0.0013   -0.0211   -0.0313   -0.0301
          40   -0.0205    0.0301   -0.0065   -0.0536   -0.0448   -0.0360   -0.0081   -0.0041
          41   -0.0388   -0.0185   -0.0398    0.0261   -0.0190    0.0245   -0.0271    0.0155
          42   -0.0104   -0.0090   -0.0258   -0.0361    0.0144    0.0047   -0.0333    0.0059
          43    0.0218   -0.0080   -0.0049    0.0074    0.0167   -0.0026   -0.0072    0.0024
          44   -0.0246   -0.0208   -0.0274    0.0107   -0.0022    0.0319   -0.0307   -0.0031
          45    0.0133    0.0241    0.0105    0.0461   -0.0311   -0.0162    0.0276    0.0066
          46    0.0293   -0.0030   -0.0093    0.0294    0.0036   -0.0081    0.0069    0.0055
          47   -0.0119    0.0034   -0.0077    0.0955   -0.0449    0.0153    0.0122    0.0177
          48    0.0057    0.0122    0.0040    0.0054   -0.0099   -0.0066    0.0049   -0.0020
          49    0.0435   -0.0129    0.0198    0.0296   -0.0002    0.0131    0.0195    0.0076
          50    0.0602   -0.0744    0.0387    0.0246   -0.0232    0.0345    0.0673   -0.0599
          51    0.0231    0.0220   -0.0159    0.0014   -0.0017    0.0164    0.0304    0.0164
          52    0.0516   -0.0412    0.0472    0.0305   -0.0268   -0.0067    0.0093   -0.0242
          53    0.0025    0.0304   -0.0293   -0.0315   -0.0116    0.0032    0.0231    0.0267
          54   -0.0023    0.0467   -0.0218   -0.0347   -0.0324   -0.0259   -0.0024    0.0224
          55    0.0238    0.0030   -0.0264    0.0257    0.0031   -0.0417   -0.0301   -0.0237
          56    0.0229    0.0157    0.0214    0.0098    0.0240   -0.0512   -0.0341   -0.0199
          57   -0.0204    0.0419   -0.0341    0.0226   -0.0207    0.0841   -0.0040   -0.0195
          58    0.0120   -0.0090   -0.0036    0.0026    0.0582   -0.0352    0.0250    0.0341
          59   -0.0184    0.0706    0.0196    0.0161    0.0245    0.1258   -0.0153   -0.0235
          60   -0.0025    0.0014   -0.0161    0.0028    0.0187   -0.0156    0.0188    0.0182
          61    0.0212   -0.0196   -0.0147    0.0275    0.0153    0.0000   -0.0008    0.0093
          62   -0.0056    0.0269    0.0212   -0.0289   -0.0147   -0.0116    0.0133   -0.0060
          63   -0.0012   -0.0012   -0.0006    0.0068   -0.0021    0.0008    0.0022    0.0012
          64    0.0214   -0.0206   -0.0256    0.0407    0.0123    0.0131   -0.0277    0.0051
          65   -0.0073    0.0200    0.0176   -0.0370   -0.0088   -0.0113    0.0146   -0.0059
          66   -0.0011    0.0018    0.0043    0.0063   -0.0038   -0.0026    0.0100    0.0029
          67    0.0288    0.0143    0.0144   -0.0433    0.0108   -0.0387    0.0269   -0.0164
          68   -0.0074    0.0157    0.0123   -0.0238   -0.0086   -0.0048    0.0068   -0.0022
          69   -0.0043   -0.0154   -0.0120    0.0220    0.0029    0.0130   -0.0066    0.0085
          70    0.0206    0.0429   -0.0146    0.0134    0.0011   -0.0078   -0.0088   -0.0668
          71   -0.0270    0.0052    0.0103   -0.0029    0.0113    0.0025   -0.0372   -0.0464
          72   -0.0014   -0.0225    0.0436    0.0002   -0.0161    0.0020   -0.0145    0.0957
          73   -0.0428   -0.0884    0.0850   -0.0053   -0.0525   -0.0294   -0.0444   -0.0948
          74   -0.0095   -0.0462    0.0336   -0.0172   -0.0373    0.0028   -0.0098   -0.0102
          75   -0.0265    0.0525   -0.0058    0.0003    0.0410    0.0552    0.0436    0.0549
          76   -0.0369    0.0016   -0.0654    0.0441   -0.0008   -0.0822    0.0191    0.0777
          77   -0.0450   -0.0256   -0.0242   -0.0165    0.0139   -0.0384    0.0293    0.0375
          78    0.0382    0.0164    0.0510   -0.0020    0.0477    0.0412    0.0215   -0.0983
          79    0.0312   -0.0436   -0.0434   -0.0633    0.0530    0.0193   -0.0793    0.0574
          80   -0.0026   -0.0258    0.0087   -0.0634    0.0352    0.0060   -0.0266    0.0203
          81   -0.0453    0.0372   -0.0150    0.0279   -0.0833    0.0170    0.0417   -0.0884


   Root No.      17        18        19        20        21        22        23        24

                17 A      18 A      19 A      20 A      21 A      22 A      23 A      24 A   

                 782.1     789.5     828.7     872.4     915.7     929.4     957.9     979.8
  
           1    0.0036   -0.0112   -0.0058   -0.0002   -0.0115   -0.0102   -0.0082   -0.0011
           2   -0.0106   -0.0167   -0.0025    0.0233    0.0446    0.0016    0.0068   -0.0021
           3   -0.0076   -0.0098    0.0026   -0.0164   -0.0211    0.0039    0.0102   -0.0021
           4    0.0024    0.0014    0.0015   -0.0268   -0.0122    0.0032    0.0014   -0.0140
           5   -0.0009    0.0019    0.0023   -0.0041    0.0033    0.0123    0.0031    0.0117
           6   -0.0051    0.0001    0.0002    0.0147   -0.0013   -0.0211   -0.0054   -0.0016
           7    0.0048   -0.0208   -0.0032    0.0085    0.0095   -0.0093    0.0094    0.0086
           8   -0.0043    0.0032    0.0045   -0.0109    0.0014    0.0053    0.0023   -0.0078
           9   -0.0244   -0.0113    0.0013   -0.0013   -0.0024    0.0084   -0.0137   -0.0069
          10   -0.0009    0.0011   -0.0094   -0.0016   -0.0022   -0.0004   -0.0003   -0.0015
          11   -0.0017   -0.0069   -0.0215    0.0018   -0.0055   -0.0129   -0.0016   -0.0056
          12   -0.0016    0.0058   -0.0292   -0.0049    0.0042    0.0057    0.0002   -0.0034
          13   -0.0067    0.0087   -0.0026    0.0249   -0.0200    0.0019    0.0089    0.0083
          14   -0.0152   -0.0297   -0.0079    0.0205   -0.0189    0.0002   -0.0043    0.0057
          15    0.0164   -0.0042   -0.0055   -0.0019    0.0085   -0.0053   -0.0123    0.0016
          16    0.0049    0.0056   -0.0017    0.0056   -0.0034    0.0137   -0.0114   -0.0125
          17   -0.0045   -0.0123    0.0030   -0.0226   -0.0337   -0.0151   -0.0012    0.0155
          18   -0.0020    0.0031   -0.0043   -0.0043    0.0003   -0.0179    0.0078    0.0068
          19   -0.0014    0.0020   -0.0009    0.0044    0.0106    0.0079    0.0036    0.0085
          20    0.0002   -0.0030   -0.0074    0.0009   -0.0045   -0.0126   -0.0055   -0.0147
          21    0.0000    0.0001   -0.0069   -0.0040   -0.0009    0.0085    0.0026    0.0114
          22   -0.0344   -0.0203    0.0021   -0.0081    0.0343   -0.0035   -0.0042    0.0047
          23    0.0140    0.0347    0.0019   -0.0062   -0.0011   -0.0037   -0.0063    0.0042
          24    0.0050   -0.0101    0.0004    0.0091    0.0057    0.0045    0.0136   -0.0044
          25   -0.0088    0.0167    0.0163   -0.0086   -0.0001   -0.0064    0.0279    0.0061
          26    0.0002    0.0164    0.0072    0.0022    0.0049    0.0040    0.0071   -0.0057
          27    0.0053   -0.0137    0.0151   -0.0105   -0.0010    0.0125   -0.0104    0.0093
          28   -0.0011    0.0218    0.0026   -0.0068    0.0035    0.0057   -0.0021   -0.0102
          29    0.0027    0.0101    0.0013   -0.0056    0.0013    0.0005    0.0011   -0.0029
          30    0.0249    0.0325    0.0015    0.0051   -0.0018   -0.0029    0.0018    0.0064
          31   -0.0023    0.0231   -0.0014    0.0076   -0.0022   -0.0023   -0.0190    0.0088
          32    0.0032    0.0195    0.0020    0.0082    0.0033    0.0052   -0.0109   -0.0014
          33    0.0116   -0.0062   -0.0006    0.0012   -0.0003    0.0110    0.0097   -0.0118
          34    0.0129   -0.0200   -0.0089   -0.0440   -0.0249    0.0096   -0.0414   -0.0225
          35    0.0162   -0.0150   -0.0038    0.0191    0.1188   -0.0119    0.0374   -0.0103
          36    0.0114   -0.0130    0.0000   -0.0330    0.0161    0.0024    0.0146   -0.0138
          37    0.0366   -0.0348   -0.0044    0.0421   -0.0022    0.0129    0.0088   -0.0069
          38   -0.0150   -0.0069    0.0153   -0.0275   -0.0008    0.0578    0.0251   -0.0545
          39   -0.0010   -0.0205   -0.0009    0.0251   -0.0072    0.0178   -0.0154   -0.0125
          40    0.0174   -0.0117   -0.0061   -0.0328    0.0044    0.0002   -0.0566   -0.0548
          41    0.0089   -0.0235    0.0346   -0.0179   -0.0209    0.0357   -0.0208    0.0864
          42    0.0024   -0.0097    0.0066    0.0083   -0.0013   -0.0152   -0.0311    0.0022
          43   -0.0040    0.0084   -0.0796   -0.0039   -0.0007    0.0165    0.0018    0.0118
          44   -0.0055    0.0011   -0.0707   -0.0075   -0.0030   -0.0213   -0.0033   -0.0262
          45    0.0087   -0.0170    0.1453    0.0136   -0.0005   -0.0011    0.0004    0.0147
          46    0.0032   -0.0134    0.1242    0.0308   -0.0028   -0.0455   -0.0180   -0.0355
          47    0.0100   -0.0294    0.1084    0.0005   -0.0135    0.0097    0.0085    0.0431
          48    0.0008    0.0000    0.0106   -0.0006    0.0021    0.0021   -0.0008   -0.0008
          49   -0.0002    0.0026    0.0042   -0.0069    0.0025    0.0164    0.0138   -0.0066
          50    0.0747   -0.0365   -0.0056   -0.0751    0.0702   -0.0160   -0.0442   -0.0176
          51   -0.0207   -0.0091    0.0011    0.0089   -0.0095    0.0182    0.0120   -0.0035
          52    0.0644   -0.0067   -0.0069   -0.0084    0.0890   -0.0237   -0.0246    0.0123
          53   -0.0677   -0.0290   -0.0096    0.0675   -0.0802    0.0101    0.0166    0.0144
          54   -0.0225   -0.0279   -0.0193    0.0957    0.0130   -0.0221   -0.0081    0.0408
          55   -0.0177    0.0053   -0.0019   -0.0304   -0.0403   -0.0017   -0.0417   -0.0127
          56   -0.0196   -0.0209    0.0005   -0.0535   -0.0618   -0.0474   -0.0043    0.0327
          57    0.0105    0.0333    0.0069    0.0376    0.0314    0.0736   -0.0363   -0.0571
          58    0.0317   -0.0272   -0.0108   -0.0185   -0.0244   -0.0295    0.0645   -0.0023
          59    0.0303    0.0051    0.0150    0.0240   -0.0015    0.0769   -0.0045   -0.0457
          60    0.0136   -0.0058   -0.0058   -0.0054   -0.0025   -0.0187    0.0354    0.0000
          61    0.0022   -0.0149    0.1217    0.0418    0.0019   -0.0718   -0.0225   -0.0762
          62    0.0025    0.0041    0.0144   -0.0130    0.0016    0.0275    0.0102    0.0288
          63    0.0008   -0.0021    0.0160    0.0010   -0.0019   -0.0011   -0.0002    0.0016
          64   -0.0068    0.0000   -0.1121    0.0034    0.0091   -0.0018   -0.0047   -0.0022
          65    0.0031    0.0030    0.0386   -0.0082    0.0002    0.0169    0.0076    0.0170
          66    0.0035   -0.0069    0.0792    0.0114   -0.0058   -0.0229   -0.0064   -0.0217
          67    0.0028    0.0179    0.0392   -0.0213    0.0285    0.0920    0.0346    0.0966
          68    0.0020   -0.0004    0.0208   -0.0028   -0.0009    0.0032    0.0008    0.0023
          69    0.0006   -0.0114    0.0385    0.0181   -0.0108   -0.0462   -0.0162   -0.0447
          70    0.1809    0.0049   -0.0153    0.0200    0.0116   -0.0435   -0.0181    0.0491
          71    0.0628   -0.0093    0.0056   -0.0146    0.0672   -0.0141    0.0338    0.0073
          72   -0.1027    0.0480    0.0112   -0.0083   -0.0233    0.0311    0.0033   -0.0324
          73    0.0668   -0.0536   -0.0096    0.0945   -0.0776    0.0334    0.0589   -0.0174
          74    0.0553    0.0089   -0.0048    0.0437   -0.0393    0.0076    0.0278    0.0030
          75   -0.0782   -0.0264    0.0025   -0.0454    0.1240   -0.0387   -0.0105    0.0406
          76    0.0468   -0.0957   -0.0267   -0.0416   -0.0382   -0.0100    0.0572   -0.0237
          77    0.0270   -0.0200    0.0139   -0.0049    0.0288    0.0339    0.0470   -0.0277
          78   -0.0485    0.1167    0.0000    0.0468   -0.0126   -0.0210   -0.1112    0.0411
          79    0.0367   -0.0963    0.0243   -0.0116   -0.0114    0.0424   -0.0843    0.0237
          80    0.0149   -0.0366    0.0304   -0.0177   -0.0056    0.0132   -0.0241   -0.0161
          81   -0.0480    0.1128    0.0136   -0.0147    0.0086   -0.0478    0.1228   -0.0168


   Root No.      25        26        27        28        29        30        31        32

                25 A      26 A      27 A      28 A      29 A      30 A      31 A      32 A   

                 994.6    1005.7    1024.1    1050.5    1063.2    1069.8    1073.7    1079.5
  
           1    0.0067   -0.0057   -0.0015    0.0130   -0.0076   -0.0104    0.0020    0.0021
           2   -0.0091   -0.0068   -0.0004   -0.0034   -0.0052    0.0046   -0.0018   -0.0028
           3    0.0134   -0.0179   -0.0009    0.0051   -0.0114   -0.0042    0.0023    0.0195
           4    0.0050   -0.0058    0.0007   -0.0122    0.0016   -0.0009    0.0054    0.0074
           5   -0.0014    0.0015    0.0186    0.0040   -0.0003    0.0074   -0.0082   -0.0016
           6   -0.0016    0.0007    0.0109    0.0018    0.0093   -0.0058    0.0009    0.0016
           7   -0.0082    0.0014   -0.0009   -0.0123   -0.0088   -0.0033    0.0145   -0.0059
           8    0.0077    0.0034   -0.0050   -0.0090   -0.0038   -0.0071    0.0020    0.0029
           9    0.0024    0.0199   -0.0019    0.0022    0.0014    0.0036   -0.0061    0.0098
          10    0.0022   -0.0005    0.0063    0.0009   -0.0015   -0.0041    0.0024    0.0062
          11    0.0011    0.0002    0.0205   -0.0033   -0.0062   -0.0043    0.0059    0.0000
          12    0.0003    0.0002    0.0183    0.0012   -0.0082    0.0079   -0.0060   -0.0019
          13    0.0155   -0.0105   -0.0002    0.0031    0.0032    0.0097    0.0023    0.0155
          14    0.0094    0.0183   -0.0016   -0.0129   -0.0044   -0.0050   -0.0026   -0.0186
          15   -0.0164    0.0151    0.0027    0.0001    0.0134    0.0001   -0.0023   -0.0137
          16    0.0120    0.0019    0.0059    0.0052    0.0123   -0.0034    0.0080   -0.0024
          17   -0.0100    0.0003   -0.0022    0.0155   -0.0012    0.0125   -0.0082   -0.0056
          18   -0.0068   -0.0055    0.0008   -0.0201    0.0007   -0.0170    0.0148    0.0077
          19   -0.0040    0.0017    0.0002   -0.0010    0.0000    0.0033   -0.0019   -0.0069
          20    0.0007   -0.0030   -0.0265   -0.0001    0.0047    0.0030   -0.0036    0.0009
          21   -0.0009    0.0002   -0.0088    0.0007    0.0051   -0.0058    0.0017    0.0026
          22    0.0225    0.0082   -0.0017   -0.0087   -0.0018    0.0052   -0.0054   -0.0025
          23    0.0019    0.0092   -0.0003    0.0040    0.0020    0.0096    0.0026    0.0166
          24   -0.0061   -0.0217    0.0016   -0.0014    0.0023   -0.0105   -0.0035   -0.0236
          25   -0.0060    0.0164   -0.0143    0.0096   -0.0012    0.0100   -0.0073   -0.0081
          26    0.0045    0.0058   -0.0049    0.0022    0.0064   -0.0009    0.0085   -0.0025
          27   -0.0045   -0.0056   -0.0220    0.0039   -0.0205    0.0010    0.0003   -0.0032
          28   -0.0251    0.0051    0.0016    0.0051   -0.0055   -0.0206   -0.0048   -0.0225
          29   -0.0113   -0.0079    0.0016    0.0110    0.0044   -0.0052   -0.0007    0.0032
          30    0.0230    0.0038   -0.0025   -0.0167   -0.0113    0.0058   -0.0024   -0.0109
          31   -0.0089   -0.0126   -0.0055   -0.0016   -0.0113    0.0025   -0.0135    0.0022
          32   -0.0002   -0.0061   -0.0101    0.0012   -0.0044    0.0016   -0.0022    0.0002
          33    0.0055    0.0120   -0.0040    0.0214   -0.0029    0.0218   -0.0014   -0.0080
          34    0.0041   -0.0364    0.0078    0.0549   -0.0140    0.0108   -0.0460    0.0436
          35   -0.0582   -0.0919   -0.0072   -0.0092   -0.0496    0.0060    0.0624    0.0358
          36   -0.0162   -0.0771   -0.0009    0.0187   -0.0385    0.0042    0.0213    0.0576
          37   -0.0989    0.1205   -0.0024   -0.0359   -0.0283    0.0151    0.0440    0.1506
          38    0.0746   -0.0135   -0.0073   -0.0512    0.0155   -0.0524   -0.0505    0.0297
          39   -0.0690    0.1037   -0.0028   -0.0105   -0.0148    0.0217    0.0197    0.1157
          40   -0.0188   -0.0235    0.0295   -0.0919    0.0782    0.0450   -0.0497   -0.0062
          41   -0.0203   -0.0110    0.0283   -0.0328    0.0938   -0.0154   -0.0396    0.0296
          42   -0.0143   -0.0085    0.0224   -0.0345    0.0586    0.0052   -0.0266    0.0044
          43   -0.0018    0.0007   -0.0860    0.0069    0.0187    0.0012    0.0034    0.0062
          44    0.0071   -0.0007    0.1330   -0.0087   -0.0383   -0.0040    0.0046    0.0006
          45   -0.0051    0.0001   -0.0431    0.0016    0.0180    0.0007   -0.0054   -0.0032
          46    0.0049   -0.0014    0.0353    0.0182   -0.0030    0.0049   -0.0245    0.0135
          47   -0.0058    0.0010   -0.0775   -0.0192    0.0307   -0.0352    0.0349   -0.0041
          48   -0.0004    0.0001    0.0065    0.0013   -0.0025    0.0046   -0.0056   -0.0014
          49   -0.0418   -0.0390   -0.0014   -0.0530    0.0412    0.1005    0.0146    0.0301
          50   -0.0580    0.0483    0.0031   -0.0047   -0.0085   -0.0414   -0.0102   -0.0726
          51   -0.0458   -0.0306   -0.0007   -0.0659    0.0560    0.1143    0.0138    0.0260
          52   -0.0235    0.0194    0.0060    0.1017    0.0551   -0.0471   -0.0149    0.0532
          53    0.0504    0.0047   -0.0040   -0.0394   -0.0259    0.0066    0.0012   -0.0208
          54    0.0475    0.0321    0.0075    0.1090    0.0493   -0.0720   -0.0242    0.0577
          55    0.0345   -0.0068    0.0302    0.0344    0.0600   -0.0121    0.1772   -0.0237
          56   -0.0146   -0.0080    0.0044    0.0224    0.0119    0.0085    0.0600   -0.0131
          57    0.0529    0.0110    0.0184    0.0114    0.0403   -0.0167    0.0834   -0.0043
          58   -0.0074   -0.0023    0.0167   -0.0629    0.0453   -0.0936   -0.1110    0.0429
          59    0.0342    0.0252    0.0008    0.0254    0.0228    0.0004   -0.0855    0.0052
          60   -0.0069   -0.0027    0.0055   -0.0445    0.0173   -0.0535   -0.0421    0.0273
          61    0.0052   -0.0020    0.0504    0.0011   -0.0275    0.0356   -0.0174   -0.0146
          62   -0.0005    0.0034    0.0337   -0.0023   -0.0033   -0.0102    0.0084    0.0022
          63    0.0006    0.0002    0.0050    0.0012    0.0000   -0.0020    0.0001    0.0018
          64   -0.0105   -0.0060   -0.1301    0.0011    0.0295    0.0074   -0.0142   -0.0092
          65    0.0021    0.0037    0.0572   -0.0023   -0.0104   -0.0071    0.0083    0.0026
          66    0.0056    0.0004    0.0464    0.0013   -0.0135    0.0045   -0.0003    0.0027
          67   -0.0083    0.0151    0.1280   -0.0047   -0.0192   -0.0146    0.0158   -0.0107
          68    0.0009    0.0006    0.0213   -0.0009   -0.0050    0.0002    0.0008   -0.0001
          69    0.0050   -0.0047   -0.0116    0.0039   -0.0034    0.0099   -0.0082    0.0031
          70    0.0997    0.0583   -0.0076   -0.0523   -0.0138    0.0361    0.0128   -0.0398
          71    0.0770   -0.1026   -0.0055    0.0210   -0.0058    0.0008   -0.0210    0.1062
          72   -0.0769   -0.0047    0.0051    0.0159   -0.0030   -0.0307   -0.0084   -0.0287
          73   -0.0735   -0.0838    0.0121    0.0203    0.0339   -0.0022    0.0076   -0.0574
          74   -0.0440   -0.0531    0.0117    0.0333    0.0471    0.0277    0.0132   -0.0195
          75    0.0488   -0.0264    0.0120    0.0305    0.0746    0.0660    0.0038   -0.0309
          76    0.0077    0.0270    0.0507    0.0490    0.0242    0.0551   -0.0164   -0.0018
          77    0.0202    0.0305   -0.0472    0.0105   -0.0153   -0.0005    0.0178   -0.0185
          78   -0.0303   -0.0589    0.0089   -0.0198   -0.0100   -0.0067   -0.0238    0.0180
          79   -0.0098   -0.0342   -0.0274   -0.0016   -0.0363   -0.0005   -0.0024   -0.0007
          80    0.0167   -0.0132   -0.0221   -0.0509    0.0359   -0.0759    0.0932    0.0232
          81    0.0040    0.0528   -0.0116    0.0000    0.0343   -0.0112    0.0234   -0.0038


   Root No.      33        34        35        36        37        38        39        40

                33 A      34 A      35 A      36 A      37 A      38 A      39 A      40 A   

                1083.4    1110.1    1114.1    1121.1    1130.3    1142.3    1160.6    1167.1
  
           1    0.0148    0.0072   -0.0008   -0.0006    0.0012    0.0021    0.0197   -0.0056
           2    0.0048    0.0096    0.0023   -0.0040   -0.0109    0.0014    0.0043   -0.0139
           3    0.0034   -0.0047   -0.0101   -0.0095    0.0048   -0.0004   -0.0114    0.0024
           4   -0.0120   -0.0162   -0.0076   -0.0040   -0.0176   -0.0025   -0.0201   -0.0052
           5    0.0045    0.0094    0.0016    0.0076    0.0150   -0.0055   -0.0075   -0.0146
           6    0.0169   -0.0006   -0.0008   -0.0115   -0.0061   -0.0004    0.0278    0.0028
           7    0.0037   -0.0106   -0.0034    0.0134    0.0088   -0.0038    0.0033   -0.0054
           8    0.0011   -0.0032   -0.0041    0.0109    0.0021    0.0004    0.0066    0.0035
           9   -0.0018    0.0070   -0.0010   -0.0113   -0.0085    0.0042   -0.0031    0.0046
          10    0.0000    0.0038   -0.0019    0.0225   -0.0296    0.0187   -0.0010    0.0132
          11   -0.0078   -0.0065    0.0032   -0.0069   -0.0089    0.0033    0.0192    0.0154
          12   -0.0074    0.0032    0.0033    0.0070    0.0225    0.0213   -0.0176   -0.0130
          13   -0.0068   -0.0005   -0.0008   -0.0013    0.0036   -0.0015   -0.0030    0.0045
          14    0.0040   -0.0039    0.0083    0.0037    0.0017    0.0004   -0.0044    0.0033
          15   -0.0066   -0.0072    0.0139    0.0095   -0.0010   -0.0041    0.0047   -0.0024
          16    0.0015    0.0098    0.0103   -0.0102   -0.0059    0.0019   -0.0065    0.0019
          17   -0.0059    0.0013    0.0048   -0.0057   -0.0015    0.0001   -0.0059    0.0068
          18   -0.0057    0.0019   -0.0039    0.0116    0.0126   -0.0049    0.0037   -0.0017
          19    0.0000   -0.0040    0.0014   -0.0226    0.0274   -0.0176   -0.0017   -0.0127
          20    0.0034    0.0003   -0.0038    0.0005    0.0028   -0.0090   -0.0112   -0.0065
          21    0.0091    0.0031   -0.0047    0.0038   -0.0196   -0.0246    0.0037    0.0070
          22    0.0034    0.0021    0.0048   -0.0010   -0.0020    0.0015   -0.0021    0.0023
          23   -0.0052    0.0035   -0.0062   -0.0040   -0.0009    0.0000    0.0005   -0.0005
          24    0.0019   -0.0035    0.0051    0.0058    0.0004    0.0003   -0.0013    0.0009
          25   -0.0005   -0.0001    0.0018    0.0031    0.0044    0.0023    0.0006    0.0064
          26    0.0025    0.0023    0.0021   -0.0012    0.0022    0.0004    0.0007   -0.0030
          27   -0.0230    0.0039    0.0047    0.0032    0.0007   -0.0034   -0.0036   -0.0025
          28    0.0063   -0.0040    0.0001    0.0011    0.0002    0.0007   -0.0017   -0.0028
          29   -0.0022   -0.0041    0.0004    0.0015    0.0013   -0.0003    0.0004    0.0006
          30    0.0084    0.0025    0.0036   -0.0024   -0.0017    0.0006   -0.0017   -0.0022
          31   -0.0062   -0.0056   -0.0035    0.0007   -0.0051    0.0012    0.0003    0.0029
          32   -0.0022   -0.0035   -0.0023    0.0004   -0.0023    0.0001   -0.0006    0.0024
          33    0.0095   -0.0138   -0.0049   -0.0016   -0.0079    0.0038    0.0013    0.0049
          34    0.0584    0.1138    0.0102    0.0094    0.0699   -0.0051    0.1402   -0.0217
          35    0.0441    0.0188   -0.0561   -0.0598   -0.0252    0.0470   -0.0703    0.0655
          36    0.0421    0.0395   -0.0387   -0.0391    0.0234    0.0228   -0.0096    0.0433
          37    0.0010   -0.0013   -0.0404    0.0136    0.0343   -0.0103    0.0135   -0.0115
          38   -0.0358   -0.0547   -0.1359    0.0775    0.0503   -0.0139    0.1046   -0.0558
          39    0.0003    0.0200   -0.0116   -0.0199    0.0023    0.0018   -0.0085    0.0077
          40    0.0095   -0.0763   -0.0261   -0.0443    0.0475   -0.0155   -0.0009    0.1276
          41    0.1210    0.0037   -0.0435    0.0622    0.0262    0.0819   -0.1126   -0.0357
          42    0.0525   -0.0231   -0.0187   -0.0133    0.0210    0.0170    0.0088    0.0444
          43   -0.0021    0.0181    0.0225    0.0563   -0.0224    0.1698    0.0453    0.0307
          44   -0.0230   -0.0145   -0.0103   -0.0175   -0.0117   -0.0791   -0.0246    0.0048
          45    0.0207   -0.0020   -0.0062   -0.0184    0.0169   -0.0340   -0.0045   -0.0159
          46    0.0387    0.0543   -0.0245    0.0928   -0.0898   -0.1281   -0.0366    0.0203
          47    0.0008   -0.0546    0.0050   -0.0915   -0.0076    0.0531    0.0901    0.0356
          48   -0.0004    0.0025    0.0005    0.0033    0.0159    0.0107   -0.0117   -0.0097
          49   -0.0240    0.0095    0.0624    0.0301   -0.0154   -0.0172    0.0352   -0.0149
          50    0.0270   -0.0016    0.0137    0.0079   -0.0012    0.0042    0.0078   -0.0052
          51   -0.0338    0.0014    0.0802    0.0411   -0.0198   -0.0224    0.0391   -0.0188
          52   -0.0508   -0.0419    0.0049    0.0182    0.0105   -0.0062   -0.0089    0.0059
          53    0.0189    0.0049    0.0005   -0.0079    0.0058    0.0037   -0.0133    0.0113
          54   -0.0516   -0.0630   -0.0026    0.0111    0.0252   -0.0043   -0.0379    0.0264
          55    0.0186    0.0390    0.0302    0.0145    0.0644   -0.0230   -0.0166    0.0230
          56   -0.0053    0.0094    0.0083    0.0123    0.0348   -0.0131   -0.0076    0.0187
          57    0.0205    0.0254    0.0163   -0.0023    0.0177   -0.0054   -0.0064    0.0009
          58   -0.0459    0.1100    0.0573   -0.0522   -0.0001   -0.0013   -0.0275    0.0217
          59   -0.0110    0.0421    0.0270   -0.0485   -0.0301    0.0119   -0.0179    0.0232
          60   -0.0246    0.0468    0.0175   -0.0116    0.0103   -0.0044   -0.0060    0.0083
          61   -0.0382   -0.0079    0.0196   -0.0168    0.1076    0.0873   -0.0281   -0.0431
          62   -0.0009   -0.0039    0.0002   -0.0003   -0.0235   -0.0022    0.0177    0.0175
          63    0.0031    0.0026   -0.0017    0.0059   -0.0103   -0.0073    0.0012    0.0041
          64    0.0309    0.0016   -0.0146   -0.0411    0.0440   -0.1036   -0.0284   -0.0393
          65   -0.0094   -0.0039    0.0035    0.0060   -0.0214    0.0181    0.0158    0.0182
          66   -0.0141    0.0015    0.0062    0.0201   -0.0034    0.0499   -0.0011    0.0057
          67   -0.0108   -0.0110    0.0124   -0.0354    0.0078   -0.0189    0.0506    0.0222
          68   -0.0046   -0.0025    0.0014   -0.0003    0.0018    0.0071    0.0018    0.0022
          69   -0.0034    0.0050   -0.0003    0.0194    0.0078    0.0321   -0.0210   -0.0111
          70   -0.0084    0.0429   -0.0582   -0.0158   -0.0066    0.0116   -0.0041    0.0040
          71    0.0355   -0.0804    0.1389    0.0297    0.0133   -0.0266    0.0070   -0.0115
          72    0.0074   -0.0068    0.0042    0.0011   -0.0006    0.0006   -0.0020   -0.0034
          73   -0.0319    0.0172   -0.0420    0.0097    0.0006    0.0007    0.0083   -0.0020
[...]
 TRAVEL      0.1675        C  7 --  H 23          +16.1% ( 35.5%)    21.8%
 RED. MASS   0.3840        C  4 --  C  7           +6.0% ( 21.7%)     9.3%
 EFF. MASS   1.7025

 VIBRATION   56   56A       ATOM PAIR        ENERGY CONTRIBUTION    RADIAL
 FREQ.      1428.38        C  4 --  C  7          +21.2% ( 58.4%)   100.0%
 T-DIPOLE    0.0427        C  7 --  H 22          +14.9% ( 49.0%)     3.7%
 TRAVEL      0.0945        C  7 --  H 21          +14.9% ( 48.9%)     3.5%
 RED. MASS   1.0150        C  7 --  H 23          +13.2% ( 46.1%)     3.9%
 EFF. MASS   5.2877        C  4 --  H 16          +12.3% ( 44.4%)     3.1%
                           C  4 --  H 15          +12.3% ( 44.4%)     3.3%

 VIBRATION   57   57A       ATOM PAIR        ENERGY CONTRIBUTION    RADIAL
 FREQ.      1442.25        C  6 --  C 11          +15.5% ( 60.9%)    97.8%
 T-DIPOLE    0.1365        C  3 --  C  6          +11.6% ( 52.7%)    37.8%
 TRAVEL      0.0686        C  2 --  C  9           +9.8% ( 48.3%)    98.2%
 RED. MASS   1.5690        C  6 --  H 19           +8.5% ( 45.2%)     1.8%
 EFF. MASS   9.9276

 VIBRATION   58   58A       ATOM PAIR        ENERGY CONTRIBUTION    RADIAL
 FREQ.      1834.40        C  8 --  C 10          +45.8% (100.1%)   100.0%
 T-DIPOLE    0.0874        C  3 --  C  8          +13.9% ( 55.2%)    25.8%
 TRAVEL      0.0556        C  5 --  C 10          +13.9% ( 55.1%)    26.1%
 RED. MASS   5.3838        C  8 --  H 25          +13.0% ( 53.3%)     9.9%
 EFF. MASS  11.8843        C 10 --  H 24          +12.9% ( 53.2%)     9.5%

 VIBRATION   59   59A       ATOM PAIR        ENERGY CONTRIBUTION    RADIAL
 FREQ.      1867.33        C  9 --  C 11          +44.6% ( 98.6%)   100.0%
 T-DIPOLE    0.1212        C  2 --  C  9          +14.2% ( 55.6%)    43.1%
 TRAVEL      0.0552        C  6 --  C 11          +14.0% ( 55.2%)    44.3%
 RED. MASS   5.4137        C  9 --  H 27          +13.2% ( 53.6%)     5.8%
 EFF. MASS  11.8662        C 11 --  H 26          +13.0% ( 53.1%)     5.5%

 VIBRATION   60   60A       ATOM PAIR        ENERGY CONTRIBUTION    RADIAL
 FREQ.      2838.31        C  2 --  H 14          +96.3% ( 99.7%)   100.0%
 T-DIPOLE    0.0691        C  1 --  C  2           +1.0% ( 10.2%)     9.3%
 TRAVEL      0.1286        C  2 --  C  4           +1.0% ( 10.2%)     9.6%
 RED. MASS   0.9172        C  2 --  C  9           +1.0% ( 10.1%)     7.4%
 EFF. MASS   1.4364

 VIBRATION   61   61A       ATOM PAIR        ENERGY CONTRIBUTION    RADIAL
 FREQ.      2883.33        C  3 --  H 13          +74.9% ( 88.1%)   100.0%
 T-DIPOLE    0.0582        C  1 --  H 12          +21.1% ( 46.7%)   100.0%
 TRAVEL      0.1267        C  1 --  C  3           +1.1% ( 10.8%)     1.1%
 RED. MASS   0.6024        C  3 --  C  6           +0.8% (  9.3%)     7.3%
 EFF. MASS   1.4566

 VIBRATION   62   62A       ATOM PAIR        ENERGY CONTRIBUTION    RADIAL
 FREQ.      2894.22        C  1 --  H 12          +74.9% ( 87.8%)   100.0%
 T-DIPOLE    0.0792        C  3 --  H 13          +20.9% ( 46.4%)   100.0%
 TRAVEL      0.1272        C  1 --  C  3           +1.0% (  9.9%)    51.3%
 RED. MASS   0.5982        C  1 --  C  5           +0.8% (  9.2%)     9.3%
 EFF. MASS   1.4397

 VIBRATION   63   63A       ATOM PAIR        ENERGY CONTRIBUTION    RADIAL
 FREQ.      2948.33        C  6 --  H 20          +65.1% ( 83.6%)    98.1%
 T-DIPOLE    0.0547        C  6 --  H 19          +30.9% ( 57.6%)    93.7%
 TRAVEL      0.1222        C  6 --  C 11           +1.1% ( 10.9%)     0.2%
 RED. MASS   0.5578        C  3 --  C  6           +1.1% ( 10.8%)     0.3%
 EFF. MASS   1.5306

 VIBRATION   64   64A       ATOM PAIR        ENERGY CONTRIBUTION    RADIAL
 FREQ.      2948.89        C  4 --  H 15          +55.2% ( 77.1%)    97.3%
 T-DIPOLE    0.0221        C  4 --  H 16          +41.2% ( 66.7%)    95.5%
 TRAVEL      0.1217        C  4 --  C  7           +1.2% ( 11.2%)     0.0%
 RED. MASS   0.5148        C  2 --  C  4           +1.1% ( 11.1%)     0.1%
 EFF. MASS   1.5438

 VIBRATION   65   65A       ATOM PAIR        ENERGY CONTRIBUTION    RADIAL
 FREQ.      2967.50        C  5 --  H 17          +56.1% ( 77.7%)    97.4%
 T-DIPOLE    0.0498        C  5 --  H 18          +41.2% ( 66.6%)    95.6%
 TRAVEL      0.1217        C  5 --  C 10           +1.1% ( 10.9%)     0.1%
 RED. MASS   0.5231        C  1 --  C  5           +1.1% ( 10.9%)     0.1%
 EFF. MASS   1.5354

 VIBRATION   66   66A       ATOM PAIR        ENERGY CONTRIBUTION    RADIAL
 FREQ.      3028.13        C  4 --  H 16          +56.8% ( 74.3%)    98.4%
 T-DIPOLE    0.0334        C  4 --  H 15          +41.1% ( 63.2%)    96.7%
 TRAVEL      0.1321        C  4 --  C  7           +0.6% (  7.8%)    25.4%
 RED. MASS   0.4866        C  2 --  C  4           +0.6% (  7.6%)    28.4%
 EFF. MASS   1.2754

 VIBRATION   67   67A       ATOM PAIR        ENERGY CONTRIBUTION    RADIAL
 FREQ.      3031.63        C  6 --  H 19          +67.7% ( 81.3%)    99.2%
 T-DIPOLE    0.0693        C  6 --  H 20          +30.3% ( 54.4%)    94.0%
 TRAVEL      0.1313        C  6 --  C 11           +0.7% (  8.1%)    23.8%
 RED. MASS   0.5379        C  3 --  C  6           +0.7% (  8.1%)    28.2%
 EFF. MASS   1.2896

 VIBRATION   68   68A       ATOM PAIR        ENERGY CONTRIBUTION    RADIAL
 FREQ.      3048.10        C  5 --  H 18          +57.3% ( 74.7%)    98.4%
 T-DIPOLE    0.0909        C  5 --  H 17          +41.0% ( 63.1%)    96.4%
 TRAVEL      0.1313        C  1 --  C  5           +0.7% (  8.2%)    36.8%
 RED. MASS   0.4925        C  5 --  C 10           +0.7% (  8.2%)    30.6%
 EFF. MASS   1.2837

 VIBRATION   69   69A       ATOM PAIR        ENERGY CONTRIBUTION    RADIAL
 FREQ.      3056.55        C  9 --  H 27          +76.7% ( 88.9%)   100.0%
 T-DIPOLE    0.3225        C 11 --  H 26          +19.7% ( 45.0%)    99.9%
 TRAVEL      0.1224        C  9 --  C 11           +1.2% ( 11.0%)     6.9%
 RED. MASS   0.6150        C  2 --  C  9           +1.1% ( 10.6%)    18.9%
 EFF. MASS   1.4723

 VIBRATION   70   70A       ATOM PAIR        ENERGY CONTRIBUTION    RADIAL
 FREQ.      3074.87        C  7 --  H 22          +58.3% ( 78.7%)    98.3%
 T-DIPOLE    0.0600        C  7 --  H 21          +34.9% ( 60.9%)    94.5%
 TRAVEL      0.1209        C  7 --  H 23           +2.9% ( 17.5%)    37.0%
 RED. MASS   0.4884        C 11 --  H 26           +2.6% ( 16.5%)   100.0%
 EFF. MASS   1.5012

 VIBRATION   71   71A       ATOM PAIR        ENERGY CONTRIBUTION    RADIAL
 FREQ.      3081.58        C 11 --  H 26          +70.9% ( 85.6%)   100.0%
 T-DIPOLE    0.3035        C  9 --  H 27          +18.8% ( 44.1%)    99.8%
 TRAVEL      0.1176        C  7 --  H 21           +4.0% ( 20.4%)    98.6%
 RED. MASS   0.5429        C  7 --  H 23           +2.0% ( 14.2%)    93.4%
 EFF. MASS   1.5830

 VIBRATION   72   72A       ATOM PAIR        ENERGY CONTRIBUTION    RADIAL
 FREQ.      3082.77        C  7 --  H 23          +57.2% ( 77.9%)    98.6%
 T-DIPOLE    0.0618        C  7 --  H 21          +27.8% ( 54.3%)    92.1%
 TRAVEL      0.1205        C  7 --  H 22           +9.4% ( 31.6%)    72.9%
 RED. MASS   0.4388        C 11 --  H 26           +2.8% ( 17.3%)    99.9%
 EFF. MASS   1.5069

 VIBRATION   73   73A       ATOM PAIR        ENERGY CONTRIBUTION    RADIAL
 FREQ.      3113.87        C  8 --  H 25          +48.8% ( 71.0%)   100.0%
 T-DIPOLE    0.3624        C 10 --  H 24          +48.6% ( 70.8%)   100.0%
 TRAVEL      0.1217        C  8 --  C 10           +1.1% ( 10.7%)     0.0%
 RED. MASS   0.4648        C  3 --  C  8           +0.7% (  8.6%)    25.9%
 EFF. MASS   1.4609

 VIBRATION   74   74A       ATOM PAIR        ENERGY CONTRIBUTION    RADIAL
 FREQ.      3133.06        C 10 --  H 24          +47.8% ( 70.5%)    99.9%
 T-DIPOLE    0.3530        C  8 --  H 25          +47.7% ( 70.3%)    99.9%
 TRAVEL      0.1141        C  8 --  C 10           +2.5% ( 16.1%)   100.0%
 RED. MASS   0.4665        C  5 --  C 10           +0.9% (  9.9%)    20.4%
 EFF. MASS   1.6520

 VIBRATION   75   75A       ATOM PAIR        ENERGY CONTRIBUTION    RADIAL
 FREQ.      3179.06        C  7 --  H 23          +37.4% ( 58.9%)    97.7%
 T-DIPOLE    0.0130        C  7 --  H 21          +32.3% ( 54.7%)    96.9%
 TRAVEL      0.1366        C  7 --  H 22          +29.9% ( 52.6%)    96.5%
 RED. MASS   0.3293        C  4 --  C  7           +0.3% (  5.1%)    99.2%
 EFF. MASS   1.1373

 SYMMETRY NUMBER FOR POINT-GROUP C1  =  1


          SYSTEM IS A GROUND STATE


    NULL



          MOLECULE IS NOT LINEAR

          THERE ARE 75 GENUINE VIBRATIONS IN THIS SYSTEM
          THIS THERMODYNAMICS CALCULATION IS LIMITED TO
          MOLECULES WHICH HAVE NO INTERNAL ROTATIONS




                    CALCULATED THERMODYNAMIC PROPERTIES
                                          *
   TEMP. (K)   PARTITION FUNCTION   H.O.F.    ENTHALPY  HEAT CAPACITY ENTROPY
                                   KCAL/MOL   CAL/MOLE    CAL/K/MOL  CAL/K/MOL


 298.00  VIB.     0.2668D+03                  4520.8187    34.7401    26.2723
         ROT.     0.8446D+06                   888.2813     2.9808    30.0995
         INT.     0.2254D+09                  5409.1000    37.7209    56.3718
         TRA.     0.1745D+28                  1480.4688     4.9680    40.8894
         TOT.                        7.269    6889.5688    42.6889    97.2612

 200.00  VIB.     0.2442D+02                  1843.6886    20.4170    15.5682
         ROT.     0.4644D+06                   596.1620     2.9808    28.9109
         INT.     0.1134D+08                  2439.8505    23.3978    44.4791
         TRA.     0.9595D+27                   993.6033     4.9680    38.9082
         TOT.                        3.813    3433.4538    28.3658    83.3873

 210.00  VIB.     0.3083D+02                  2054.3121    21.7151    16.5956
         ROT.     0.4997D+06                   625.9700     2.9808    29.0563
         INT.     0.1540D+08                  2680.2821    24.6959    45.6519
         TRA.     0.1032D+28                  1043.2834     4.9680    39.1506
         TOT.                        4.103    3723.5655    29.6639    84.8025

 220.00  VIB.     0.3902D+02                  2278.1388    23.0576    17.6366
         ROT.     0.5358D+06                   655.7781     2.9808    29.1950
         INT.     0.2091D+08                  2933.9169    26.0384    46.8316
         TRA.     0.1107D+28                  1092.9636     4.9680    39.3817
         TOT.                        4.406    4026.8805    31.0064    86.2133

 230.00  VIB.     0.4951D+02                  2515.6069    24.4431    18.6920
         ROT.     0.5727D+06                   685.5862     2.9808    29.3275
         INT.     0.2836D+08                  3201.1932    27.4239    48.0194
         TRA.     0.1183D+28                  1142.6437     4.9680    39.6026
         TOT.                        4.723    4343.8369    32.3919    87.6220

 240.00  VIB.     0.6298D+02                  2767.1359    25.8692    19.7623
         ROT.     0.6105D+06                   715.3943     2.9808    29.4543
         INT.     0.3844D+08                  3482.5302    28.8500    49.2166
         TRA.     0.1261D+28                  1192.3239     4.9680    39.8140
         TOT.                        5.054    4674.8541    33.8181    89.0306

 250.00  VIB.     0.8030D+02                  3033.1161    27.3327    20.8478
         ROT.     0.6490D+06                   745.2024     2.9808    29.5760
         INT.     0.5211D+08                  3778.3185    30.3135    50.4238
         TRA.     0.1341D+28                  1242.0041     4.9680    40.0168
         TOT.                        5.400    5020.3226    35.2815    90.4406

 260.00  VIB.     0.1026D+03                  3313.9012    28.8295    21.9489
         ROT.     0.6883D+06                   775.0105     2.9808    29.6929
         INT.     0.7065D+08                  4088.9117    31.8103    51.6418
         TRA.     0.1422D+28                  1291.6842     4.9680    40.2117
         TOT.                        5.760    5380.5960    36.7783    91.8535

 270.00  VIB.     0.1315D+03                  3609.8026    30.3552    23.0655
         ROT.     0.7284D+06                   804.8186     2.9808    29.8054
         INT.     0.9580D+08                  4414.6212    33.3360    52.8709
         TRA.     0.1505D+28                  1341.3644     4.9680    40.3992
         TOT.                        6.135    5755.9856    38.3040    93.2700

 280.00  VIB.     0.1689D+03                  3921.0854    31.9050    24.1974
         ROT.     0.7693D+06                   834.6267     2.9808    29.9138
         INT.     0.1300D+09                  4755.7121    34.8858    54.1112
         TRA.     0.1589D+28                  1391.0445     4.9680    40.5798
         TOT.                        6.526    6146.7567    39.8538    94.6910

 290.00  VIB.     0.2176D+03                  4247.9671    33.4741    25.3443
         ROT.     0.8108D+06                   864.4348     2.9808    30.0184
         INT.     0.1764D+09                  5112.4019    36.4549    55.3627
         TRA.     0.1675D+28                  1440.7247     4.9680    40.7542
         TOT.                        6.932    6553.1266    41.4230    96.1168

 300.00  VIB.     0.2809D+03                  4590.6165    35.0578    26.5057
         ROT.     0.8531D+06                   894.2429     2.9808    30.1195
         INT.     0.2396D+09                  5484.8594    38.0386    56.6252
         TRA.     0.1763D+28                  1490.4049     4.9680    40.9226
         TOT.                        7.355    6975.2643    43.0066    97.5478

 310.00  VIB.     0.3635D+03                  4949.1550    36.6512    27.6812
         ROT.     0.8962D+06                   924.0510     2.9808    30.2172
         INT.     0.3258D+09                  5873.2061    39.6320    57.8985
         TRA.     0.1851D+28                  1540.0850     4.9680    41.0855
         TOT.                        7.793    7413.2911    44.6000    98.9839

 320.00  VIB.     0.4716D+03                  5323.6583    38.2500    28.8701
         ROT.     0.9399D+06                   953.8591     2.9808    30.3118
         INT.     0.4433D+09                  6277.5174    41.2308    59.1820
         TRA.     0.1942D+28                  1589.7652     4.9680    41.2432
         TOT.                        8.247    7867.2826    46.1988   100.4252

 330.00  VIB.     0.6134D+03                  5714.1585    39.8499    30.0716
         ROT.     0.9843D+06                   983.6672     2.9808    30.4036
         INT.     0.6038D+09                  6697.8257    42.8307    60.4752
         TRA.     0.2034D+28                  1639.4454     4.9680    41.3961
         TOT.                        8.717    8337.2710    47.7987   101.8713

 340.00  VIB.     0.7997D+03                  6120.6472    41.4471    31.2850
         ROT.     0.1029D+07                  1013.4753     2.9808    30.4926
         INT.     0.8232D+09                  7134.1225    44.4279    61.7775
         TRA.     0.2127D+28                  1689.1255     4.9680    41.5444
         TOT.                        9.203    8823.2481    49.3959   103.3219

 350.00  VIB.     0.1045D+04                  6543.0792    43.0380    32.5094
         ROT.     0.1075D+07                  1043.2834     2.9808    30.5790
         INT.     0.1124D+10                  7586.3626    46.0188    63.0884
         TRA.     0.2221D+28                  1738.8057     4.9680    41.6884
         TOT.                        9.705    9325.1683    50.9868   104.7768

 360.00  VIB.     0.1369D+04                  6981.3751    44.6194    33.7440
         ROT.     0.1121D+07                  1073.0915     2.9808    30.6629
         INT.     0.1535D+10                  8054.4666    47.6002    64.4069
         TRA.     0.2317D+28                  1788.4859     4.9680    41.8284
         TOT.                       10.222    9842.9525    52.5682   106.2353

 370.00  VIB.     0.1797D+04                  7435.4259    46.1885    34.9880
         ROT.     0.1169D+07                  1102.8996     2.9808    30.7446
         INT.     0.2100D+10                  8538.3255    49.1693    65.7326
         TRA.     0.2414D+28                  1838.1660     4.9680    41.9645
         TOT.                       10.756   10376.4915    54.1373   107.6971

 380.00  VIB.     0.2365D+04                  7905.0954    47.7428    36.2404
         ROT.     0.1216D+07                  1132.7077     2.9808    30.8241
         INT.     0.2876D+10                  9037.8031    50.7236    67.0645
         TRA.     0.2513D+28                  1887.8462     4.9680    42.0970
         TOT.                       11.305   10925.6493    55.6916   109.1615

 390.00  VIB.     0.3118D+04                  8390.2245    49.2801    37.5005
         ROT.     0.1265D+07                  1162.5158     2.9808    30.9015
         INT.     0.3943D+10                  9552.7403    52.2609    68.4020
         TRA.     0.2613D+28                  1937.5263     4.9680    42.2260
         TOT.                       11.870   11490.2667    57.2289   110.6280

 400.00  VIB.     0.4120D+04                  8890.6340    50.7986    38.7673
         ROT.     0.1314D+07                  1192.3239     2.9808    30.9770
         INT.     0.5412D+10                 10082.9579    53.7794    69.7443
         TRA.     0.2714D+28                  1987.2065     4.9680    42.3518
         TOT.                       12.450   12070.1644    58.7474   112.0961

   *: NOTE: HEATS OF FORMATION ARE RELATIVE TO THE
            ELEMENTS IN THEIR STANDARD STATE AT 298K
              (=  Standard Enthalpy of Formation).

            Hvib:  Zero-point energy is not included.
                   frequencies of less than zero cm-1 are not included.
            Hrot = (3/2)RT
            Htra = (3/2)RT + pV = (5/2)RT

            Heat capacity is Cp, not Cv

           For more information, see: HTTP://OpenMOPAC.net/Manual/thermochemistry.html


           FORCE CONSTANT IN CARTESIAN COORDINATES (Millidynes/A)

    ATOM   CHEMICAL       X               Y               Z
   NUMBER   SYMBOL  FORCE CONSTANT  FORCE CONSTANT  FORCE CONSTANT

      1       C        8.268383        7.494428        8.339735
      2       C        7.943051        8.934361        8.242073
      3       C        8.232862        7.856493        8.964005
      4       C        8.508957        8.042736        8.264060
      5       C        8.196533        9.395959        7.574343
      6       C        8.663515        8.535129        8.232506
      7       C        8.273461        8.375734        8.203817
      8       C        5.616189       14.006376        7.912838
      9       C        7.959492       13.651384        5.745202
     10       C        5.547870       12.189360        9.805064
     11       C        7.615904       14.017745        5.783592
     12       H        1.110544        1.581085        3.371801
     13       H        1.915993        0.756076        3.282377
     14       H        1.106604        0.881041        3.870023
     15       H        1.997551        2.788726        1.618782
     16       H        0.769752        0.797175        4.852444
     17       H        2.898783        0.977481        2.515893
     18       H        1.794131        3.578931        1.006358
     19       H        1.622206        3.787333        0.992970
     20       H        1.229907        0.732314        4.286323
     21       H        0.798402        0.717431        5.264009
     22       H        2.256273        2.841539        1.655859
     23       H        1.160797        4.602441        1.030677
     24       H        1.725938        0.890363        3.807823
     25       H        1.801190        3.748170        0.866282
     26       H        1.121819        3.181601        2.002191
     27       H        3.203900        0.965186        2.118569



 TOTAL CPU TIME:             4.75 SECONDS

 == MOPAC DONE ==
