 *******************************************************************************
 ** Site#: 14399           For non-commercial use only        Version 13.159M **
 *******************************************************************************
 ** Cite this work as: MOPAC2012, James J. P. Stewart, Stewart Computational  **
 ** Chemistry, Version 13.159M web: HTTP://OpenMOPAC.net  Days remaining:   6 **
 *******************************************************************************
 **                                                                           **
 **                                MOPAC2012                                  **
 **                                                                           **
 *******************************************************************************

                            PM3 CALCULATION RESULTS


 *******************************************************************************
 *  CALCULATION DONE:                                Mon Jun  2 11:05:30 2014  *
 *  PM3      - The PM3 Hamiltonian to be used
 *  PRECISE  - CRITERIA TO BE INCREASED BY 100 TIMES
 *  NOSYM    - POINT-GROUP SYMMETRY SET TO C1
 *  T=       - A TIME OF 172800.0 SECONDS REQUESTED
 *  DUMP=N   - RESTART FILE WRITTEN EVERY  7200.000 SECONDS
 *******************************************************************************
pm3  precise nosym
 InChI=1S/C11H18/c1-3-6-11-8-5-7-10(4-2)9-11/h3,5,7,10-11H,1,4,6,8-9H2,2H3

   ATOM   CHEMICAL          X               Y               Z
  NUMBER   SYMBOL      (ANGSTROMS)     (ANGSTROMS)     (ANGSTROMS)
 
     1       C          0.85240000  *  -0.96540000  *   0.19300000  *
     2       C         -1.51030000  *   0.01350000  *   0.27730000  *
     3       C         -0.05040000  *   0.22320000  *  -0.18060000  *
     4       C         -2.48080000  *   1.01540000  *  -0.37540000  *
     5       C          0.29800000  *  -2.25580000  *  -0.43830000  *
     6       C          2.32220000  *  -0.74690000  *  -0.20580000  *
     7       C         -2.20950000  *   2.47820000  *  -0.03020000  *
     8       C         -1.99930000  *  -1.40160000  *   0.05120000  *
     9       C         -1.18780000  *  -2.42040000  *  -0.26680000  *
    10       C          2.97770000  *   0.35890000  *   0.57550000  *
    11       C          3.48190000  *   1.45080000  *  -0.00410000  *
    12       H          0.81090000  *  -1.09510000  *   1.30210000  *
    13       H         -1.55390000  *   0.16690000  *   1.38150000  *
    14       H          0.34270000  *   1.15490000  *   0.28770000  *
    15       H         -0.01190000  *   0.37190000  *  -1.28610000  *
    16       H         -3.52230000  *   0.79770000  *  -0.03940000  *
    17       H         -2.47240000  *   0.89680000  *  -1.48440000  *
    18       H          0.80090000  *  -3.13350000  *   0.02950000  *
    19       H          0.51230000  *  -2.29630000  *  -1.53140000  *
    20       H          2.90910000  *  -1.67080000  *   0.00510000  *
    21       H          2.39320000  *  -0.57830000  *  -1.30680000  *
    22       H         -1.24460000  *   2.82560000  *  -0.46340000  *
    23       H         -2.19330000  *   2.63030000  *   1.07320000  *
    24       H         -3.01290000  *   3.12150000  *  -0.45590000  *
    25       H         -1.61870000  *  -3.40770000  *  -0.42800000  *
    26       H         -3.05740000  *  -1.61880000  *   0.19590000  *
    27       H          3.03870000  *   0.26390000  *   1.65900000  *
    28       H          3.44150000  *   1.59530000  *  -1.08260000  *
    29       H          3.94400000  *   2.22600000  *   0.60400000  *
 


          CARTESIAN COORDINATES 

    NO.       ATOM         X         Y         Z

     1         C        0.8524   -0.9654    0.1930
     2         C       -1.5103    0.0135    0.2773
     3         C       -0.0504    0.2232   -0.1806
     4         C       -2.4808    1.0154   -0.3754
     5         C        0.2980   -2.2558   -0.4383
     6         C        2.3222   -0.7469   -0.2058
     7         C       -2.2095    2.4782   -0.0302
     8         C       -1.9993   -1.4016    0.0512
     9         C       -1.1878   -2.4204   -0.2668
    10         C        2.9777    0.3589    0.5755
    11         C        3.4819    1.4508   -0.0041
    12         H        0.8109   -1.0951    1.3021
    13         H       -1.5539    0.1669    1.3815
    14         H        0.3427    1.1549    0.2877
    15         H       -0.0119    0.3719   -1.2861
    16         H       -3.5223    0.7977   -0.0394
    17         H       -2.4724    0.8968   -1.4844
    18         H        0.8009   -3.1335    0.0295
    19         H        0.5123   -2.2963   -1.5314
    20         H        2.9091   -1.6708    0.0051
    21         H        2.3932   -0.5783   -1.3068
    22         H       -1.2446    2.8256   -0.4634
    23         H       -2.1933    2.6303    1.0732
    24         H       -3.0129    3.1215   -0.4559
    25         H       -1.6187   -3.4077   -0.4280
    26         H       -3.0574   -1.6188    0.1959
    27         H        3.0387    0.2639    1.6590
    28         H        3.4415    1.5953   -1.0826
    29         H        3.9440    2.2260    0.6040

  H: (PM3): J. J. P. STEWART, J. COMP. CHEM. 10, 209 (1989).
  C: (PM3): J. J. P. STEWART, J. COMP. CHEM. 10, 209 (1989).

           Empirical Formula: C11 H18  =    29 atoms



      MOLECULAR POINT GROUP   :   C1  


      RHF CALCULATION, NO. OF DOUBLY OCCUPIED LEVELS =   31

      Geometry optimization using EF

          DIAGONAL MATRIX USED AS START HESSIAN

 CYCLE:     1 TIME:   0.016 TIME LEFT:  2.00D  GRAD.:    56.743 HEAT: 2.788492
 CYCLE:     2 TIME:   0.031 TIME LEFT:  2.00D  GRAD.:    57.051 HEAT: 1.910709
 CYCLE:     3 TIME:   0.012 TIME LEFT:  2.00D  GRAD.:    50.457 HEAT: 1.382533
 CYCLE:     4 TIME:   0.012 TIME LEFT:  2.00D  GRAD.:    48.361 HEAT: 1.071759
 CYCLE:     5 TIME:   0.014 TIME LEFT:  2.00D  GRAD.:    63.249 HEAT: 1.052639
 CYCLE:     6 TIME:   0.012 TIME LEFT:  2.00D  GRAD.:    39.755 HEAT:0.6580398
 CYCLE:     7 TIME:   0.029 TIME LEFT:  2.00D  GRAD.:    16.718 HEAT:0.2367640
 CYCLE:     8 TIME:   0.021 TIME LEFT:  2.00D  GRAD.:    12.646 HEAT:0.1350405
 CYCLE:     9 TIME:   0.011 TIME LEFT:  2.00D  GRAD.:    15.230 HEAT:0.3402394E-01
 CYCLE:    10 TIME:   0.012 TIME LEFT:  2.00D  GRAD.:    19.032 HEAT:-.6695977E-01
 CYCLE:    11 TIME:   0.013 TIME LEFT:  2.00D  GRAD.:    19.908 HEAT:-.1341445
 CYCLE:    12 TIME:   0.011 TIME LEFT:  2.00D  GRAD.:    22.918 HEAT:-.1547588
 CYCLE:    13 TIME:   0.020 TIME LEFT:  2.00D  GRAD.:    12.615 HEAT:-.2753164
 CYCLE:    14 TIME:   0.020 TIME LEFT:  2.00D  GRAD.:     8.430 HEAT:-.3168588
 CYCLE:    15 TIME:   0.011 TIME LEFT:  2.00D  GRAD.:     8.262 HEAT:-.3377007
 CYCLE:    16 TIME:   0.012 TIME LEFT:  2.00D  GRAD.:    11.641 HEAT:-.3536981
 CYCLE:    17 TIME:   0.011 TIME LEFT:  2.00D  GRAD.:    11.829 HEAT:-.3724040
 CYCLE:    18 TIME:   0.020 TIME LEFT:  2.00D  GRAD.:     6.804 HEAT:-.4056660
 CYCLE:    19 TIME:   0.011 TIME LEFT:  2.00D  GRAD.:     9.470 HEAT:-.4078671
 CYCLE:    20 TIME:   0.011 TIME LEFT:  2.00D  GRAD.:     6.089 HEAT:-.4341825
 CYCLE:    21 TIME:   0.020 TIME LEFT:  2.00D  GRAD.:     6.962 HEAT:-.4384348
 CYCLE:    22 TIME:   0.011 TIME LEFT:  2.00D  GRAD.:     3.527 HEAT:-.4560474
 CYCLE:    23 TIME:   0.020 TIME LEFT:  2.00D  GRAD.:     6.471 HEAT:-.4561186
 CYCLE:    24 TIME:   0.011 TIME LEFT:  2.00D  GRAD.:     2.566 HEAT:-.4732316
 CYCLE:    25 TIME:   0.011 TIME LEFT:  2.00D  GRAD.:     6.934 HEAT:-.4765878
 CYCLE:    26 TIME:   0.011 TIME LEFT:  2.00D  GRAD.:     4.885 HEAT:-.4949961
 CYCLE:    27 TIME:   0.020 TIME LEFT:  2.00D  GRAD.:     6.783 HEAT:-.4963038
 CYCLE:    28 TIME:   0.011 TIME LEFT:  2.00D  GRAD.:     3.473 HEAT:-.5145792
 CYCLE:    29 TIME:   0.029 TIME LEFT:  2.00D  GRAD.:     4.403 HEAT:-.5174978
 CYCLE:    30 TIME:   0.011 TIME LEFT:  2.00D  GRAD.:     2.053 HEAT:-.5265101
 CYCLE:    31 TIME:   0.011 TIME LEFT:  2.00D  GRAD.:     4.361 HEAT:-.5443114
 CYCLE:    32 TIME:   0.011 TIME LEFT:  2.00D  GRAD.:     4.746 HEAT:-.5625763
 CYCLE:    33 TIME:   0.011 TIME LEFT:  2.00D  GRAD.:     4.728 HEAT:-.5731245
 CYCLE:    34 TIME:   0.011 TIME LEFT:  2.00D  GRAD.:     2.582 HEAT:-.5890356
 CYCLE:    35 TIME:   0.011 TIME LEFT:  2.00D  GRAD.:     2.442 HEAT:-.5984544
 CYCLE:    36 TIME:   0.011 TIME LEFT:  2.00D  GRAD.:     3.832 HEAT:-.6089444
 CYCLE:    37 TIME:   0.011 TIME LEFT:  2.00D  GRAD.:     3.549 HEAT:-.6142731
 CYCLE:    38 TIME:   0.011 TIME LEFT:  2.00D  GRAD.:     2.108 HEAT:-.6205619
 CYCLE:    39 TIME:   0.011 TIME LEFT:  2.00D  GRAD.:     1.662 HEAT:-.6255120
 CYCLE:    40 TIME:   0.011 TIME LEFT:  2.00D  GRAD.:     1.868 HEAT:-.6307122
 CYCLE:    41 TIME:   0.011 TIME LEFT:  2.00D  GRAD.:     1.582 HEAT:-.6339551
 CYCLE:    42 TIME:   0.011 TIME LEFT:  2.00D  GRAD.:     1.207 HEAT:-.6362914
 CYCLE:    43 TIME:   0.011 TIME LEFT:  2.00D  GRAD.:     1.221 HEAT:-.6385671
 CYCLE:    44 TIME:   0.011 TIME LEFT:  2.00D  GRAD.:     1.229 HEAT:-.6409005
 CYCLE:    45 TIME:   0.011 TIME LEFT:  2.00D  GRAD.:     1.183 HEAT:-.6435786
 CYCLE:    46 TIME:   0.011 TIME LEFT:  2.00D  GRAD.:     1.257 HEAT:-.6467508
 CYCLE:    47 TIME:   0.011 TIME LEFT:  2.00D  GRAD.:     1.486 HEAT:-.6503863
 CYCLE:    48 TIME:   0.011 TIME LEFT:  2.00D  GRAD.:     1.563 HEAT:-.6544314
 CYCLE:    49 TIME:   0.011 TIME LEFT:  2.00D  GRAD.:     1.300 HEAT:-.6582481
 CYCLE:    50 TIME:   0.011 TIME LEFT:  2.00D  GRAD.:     1.238 HEAT:-.6615021
 CYCLE:    51 TIME:   0.011 TIME LEFT:  2.00D  GRAD.:     1.295 HEAT:-.6645333
 CYCLE:    52 TIME:   0.011 TIME LEFT:  2.00D  GRAD.:     1.267 HEAT:-.6674912
 CYCLE:    53 TIME:   0.011 TIME LEFT:  2.00D  GRAD.:     1.007 HEAT:-.6698365
 CYCLE:    54 TIME:   0.011 TIME LEFT:  2.00D  GRAD.:     0.886 HEAT:-.6715434
 CYCLE:    55 TIME:   0.011 TIME LEFT:  2.00D  GRAD.:     0.880 HEAT:-.6731104
 CYCLE:    56 TIME:   0.011 TIME LEFT:  2.00D  GRAD.:     0.854 HEAT:-.6748433
 CYCLE:    57 TIME:   0.011 TIME LEFT:  2.00D  GRAD.:     0.736 HEAT:-.6763779
 CYCLE:    58 TIME:   0.011 TIME LEFT:  2.00D  GRAD.:     0.697 HEAT:-.6776707
 CYCLE:    59 TIME:   0.011 TIME LEFT:  2.00D  GRAD.:     0.691 HEAT:-.6787480
 CYCLE:    60 TIME:   0.011 TIME LEFT:  2.00D  GRAD.:     0.721 HEAT:-.6798989
 CYCLE:    61 TIME:   0.011 TIME LEFT:  2.00D  GRAD.:     0.735 HEAT:-.6812848
 CYCLE:    62 TIME:   0.012 TIME LEFT:  2.00D  GRAD.:     0.838 HEAT:-.6828472
 CYCLE:    63 TIME:   0.012 TIME LEFT:  2.00D  GRAD.:     0.835 HEAT:-.6843008
 CYCLE:    64 TIME:   0.012 TIME LEFT:  2.00D  GRAD.:     0.809 HEAT:-.6857912
 CYCLE:    65 TIME:   0.011 TIME LEFT:  2.00D  GRAD.:     0.841 HEAT:-.6873034
 CYCLE:    66 TIME:   0.011 TIME LEFT:  2.00D  GRAD.:     0.923 HEAT:-.6892051
 CYCLE:    67 TIME:   0.011 TIME LEFT:  2.00D  GRAD.:     1.033 HEAT:-.6916435
 CYCLE:    68 TIME:   0.012 TIME LEFT:  2.00D  GRAD.:     1.067 HEAT:-.6945882
 CYCLE:    69 TIME:   0.012 TIME LEFT:  2.00D  GRAD.:     1.007 HEAT:-.6971811
 CYCLE:    70 TIME:   0.012 TIME LEFT:  2.00D  GRAD.:     0.932 HEAT:-.6995090
 CYCLE:    71 TIME:   0.012 TIME LEFT:  2.00D  GRAD.:     0.962 HEAT:-.7015815
 CYCLE:    72 TIME:   0.012 TIME LEFT:  2.00D  GRAD.:     1.042 HEAT:-.7035472
 CYCLE:    73 TIME:   0.012 TIME LEFT:  2.00D  GRAD.:     0.911 HEAT:-.7054919
 CYCLE:    74 TIME:   0.011 TIME LEFT:  2.00D  GRAD.:     0.814 HEAT:-.7074565
 CYCLE:    75 TIME:   0.012 TIME LEFT:  2.00D  GRAD.:     0.763 HEAT:-.7094832
 CYCLE:    76 TIME:   0.015 TIME LEFT:  2.00D  GRAD.:     0.765 HEAT:-.7109446
 CYCLE:    77 TIME:   0.011 TIME LEFT:  2.00D  GRAD.:     0.715 HEAT:-.7124873
 CYCLE:    78 TIME:   0.011 TIME LEFT:  2.00D  GRAD.:     0.659 HEAT:-.7139703
 CYCLE:    79 TIME:   0.012 TIME LEFT:  2.00D  GRAD.:     0.672 HEAT:-.7152838
 CYCLE:    80 TIME:   0.012 TIME LEFT:  2.00D  GRAD.:     0.653 HEAT:-.7163934
 CYCLE:    81 TIME:   0.012 TIME LEFT:  2.00D  GRAD.:     0.662 HEAT:-.7175262
 CYCLE:    82 TIME:   0.012 TIME LEFT:  2.00D  GRAD.:     0.693 HEAT:-.7188506
 CYCLE:    83 TIME:   0.012 TIME LEFT:  2.00D  GRAD.:     0.695 HEAT:-.7203721
 CYCLE:    84 TIME:   0.012 TIME LEFT:  2.00D  GRAD.:     0.657 HEAT:-.7217238
 CYCLE:    85 TIME:   0.012 TIME LEFT:  2.00D  GRAD.:     0.552 HEAT:-.7226017
 CYCLE:    86 TIME:   0.011 TIME LEFT:  2.00D  GRAD.:     0.468 HEAT:-.7232039
 CYCLE:    87 TIME:   0.011 TIME LEFT:  2.00D  GRAD.:     0.509 HEAT:-.7238297
 CYCLE:    88 TIME:   0.011 TIME LEFT:  2.00D  GRAD.:     0.530 HEAT:-.7246619
 CYCLE:    89 TIME:   0.012 TIME LEFT:  2.00D  GRAD.:     0.528 HEAT:-.7255564
 CYCLE:    90 TIME:   0.012 TIME LEFT:  2.00D  GRAD.:     0.476 HEAT:-.7262860
 CYCLE:    91 TIME:   0.012 TIME LEFT:  2.00D  GRAD.:     0.495 HEAT:-.7269916
 CYCLE:    92 TIME:   0.012 TIME LEFT:  2.00D  GRAD.:     0.583 HEAT:-.7277922
 CYCLE:    93 TIME:   0.015 TIME LEFT:  2.00D  GRAD.:     0.656 HEAT:-.7288335
 CYCLE:    94 TIME:   0.012 TIME LEFT:  2.00D  GRAD.:     0.704 HEAT:-.7301897
 CYCLE:    95 TIME:   0.011 TIME LEFT:  2.00D  GRAD.:     0.615 HEAT:-.7309126
 CYCLE:    96 TIME:   0.012 TIME LEFT:  2.00D  GRAD.:     0.944 HEAT:-.7323142
 CYCLE:    97 TIME:   0.011 TIME LEFT:  2.00D  GRAD.:     0.627 HEAT:-.7330850
 CYCLE:    98 TIME:   0.012 TIME LEFT:  2.00D  GRAD.:     0.454 HEAT:-.7346362
 CYCLE:    99 TIME:   0.012 TIME LEFT:  2.00D  GRAD.:     0.479 HEAT:-.7356383
 CYCLE:   100 TIME:   0.012 TIME LEFT:  2.00D  GRAD.:     0.373 HEAT:-.7361749
 CYCLE:   101 TIME:   0.011 TIME LEFT:  2.00D  GRAD.:     0.286 HEAT:-.7364266
 CYCLE:   102 TIME:   0.012 TIME LEFT:  2.00D  GRAD.:     0.259 HEAT:-.7366794
 CYCLE:   103 TIME:   0.011 TIME LEFT:  2.00D  GRAD.:     0.172 HEAT:-.7367458
 CYCLE:   104 TIME:   0.011 TIME LEFT:  2.00D  GRAD.:     0.151 HEAT:-.7368266
 CYCLE:   105 TIME:   0.011 TIME LEFT:  2.00D  GRAD.:     0.189 HEAT:-.7368895
 CYCLE:   106 TIME:   0.011 TIME LEFT:  2.00D  GRAD.:     0.231 HEAT:-.7369826
 CYCLE:   107 TIME:   0.011 TIME LEFT:  2.00D  GRAD.:     0.315 HEAT:-.7372145
 CYCLE:   108 TIME:   0.012 TIME LEFT:  2.00D  GRAD.:     0.453 HEAT:-.7376689
 CYCLE:   109 TIME:   0.012 TIME LEFT:  2.00D  GRAD.:     0.527 HEAT:-.7381972
 CYCLE:   110 TIME:   0.012 TIME LEFT:  2.00D  GRAD.:     0.962 HEAT:-.7398680
 CYCLE:   111 TIME:   0.012 TIME LEFT:  2.00D  GRAD.:     0.767 HEAT:-.7409675
 CYCLE:   112 TIME:   0.012 TIME LEFT:  2.00D  GRAD.:     0.740 HEAT:-.7433906
 CYCLE:   113 TIME:   0.012 TIME LEFT:  2.00D  GRAD.:     0.743 HEAT:-.7444661
 CYCLE:   114 TIME:   0.012 TIME LEFT:  2.00D  GRAD.:     0.616 HEAT:-.7455045
 CYCLE:   115 TIME:   0.011 TIME LEFT:  2.00D  GRAD.:     0.789 HEAT:-.7460213
 CYCLE:   116 TIME:   0.012 TIME LEFT:  2.00D  GRAD.:     0.379 HEAT:-.7464864
 CYCLE:   117 TIME:   0.011 TIME LEFT:  2.00D  GRAD.:     0.259 HEAT:-.7467869
 CYCLE:   118 TIME:   0.011 TIME LEFT:  2.00D  GRAD.:     0.309 HEAT:-.7469319
 CYCLE:   119 TIME:   0.011 TIME LEFT:  2.00D  GRAD.:     0.257 HEAT:-.7470942
 CYCLE:   120 TIME:   0.011 TIME LEFT:  2.00D  GRAD.:     0.188 HEAT:-.7472114
 CYCLE:   121 TIME:   0.011 TIME LEFT:  2.00D  GRAD.:     0.174 HEAT:-.7473108
 CYCLE:   122 TIME:   0.011 TIME LEFT:  2.00D  GRAD.:     0.145 HEAT:-.7473574
 CYCLE:   123 TIME:   0.011 TIME LEFT:  2.00D  GRAD.:     0.143 HEAT:-.7474139
 CYCLE:   124 TIME:   0.011 TIME LEFT:  2.00D  GRAD.:     0.138 HEAT:-.7474559
 CYCLE:   125 TIME:   0.011 TIME LEFT:  2.00D  GRAD.:     0.125 HEAT:-.7474853
 CYCLE:   126 TIME:   0.011 TIME LEFT:  2.00D  GRAD.:     0.245 HEAT:-.7474904
 CYCLE:   127 TIME:   0.011 TIME LEFT:  2.00D  GRAD.:     0.134 HEAT:-.7475545
 CYCLE:   128 TIME:   0.011 TIME LEFT:  2.00D  GRAD.:     0.097 HEAT:-.7475996
 CYCLE:   129 TIME:   0.011 TIME LEFT:  2.00D  GRAD.:     0.123 HEAT:-.7476757
 CYCLE:   130 TIME:   0.011 TIME LEFT:  2.00D  GRAD.:     0.196 HEAT:-.7477864
 CYCLE:   131 TIME:   0.011 TIME LEFT:  2.00D  GRAD.:     0.167 HEAT:-.7478580
 CYCLE:   132 TIME:   0.012 TIME LEFT:  2.00D  GRAD.:     0.277 HEAT:-.7479667
 CYCLE:   133 TIME:   0.011 TIME LEFT:  2.00D  GRAD.:     0.167 HEAT:-.7480729
 CYCLE:   134 TIME:   0.011 TIME LEFT:  2.00D  GRAD.:     0.129 HEAT:-.7481461
 CYCLE:   135 TIME:   0.011 TIME LEFT:  2.00D  GRAD.:     0.150 HEAT:-.7482371
 CYCLE:   136 TIME:   0.011 TIME LEFT:  2.00D  GRAD.:     0.085 HEAT:-.7482914
 CYCLE:   137 TIME:   0.011 TIME LEFT:  2.00D  GRAD.:     0.064 HEAT:-.7483090
 CYCLE:   138 TIME:   0.011 TIME LEFT:  2.00D  GRAD.:     0.061 HEAT:-.7483268
 CYCLE:   139 TIME:   0.011 TIME LEFT:  2.00D  GRAD.:     0.036 HEAT:-.7483314

     RMS GRADIENT =  0.03611  IS LESS THAN CUTOFF =  0.05000



 -------------------------------------------------------------------------------
pm3  precise nosym
 InChI=1S/C11H18/c1-3-6-11-8-5-7-10(4-2)9-11/h3,5,7,10-11H,1,4,6,8-9H2,2H3



     GEOMETRY OPTIMISED USING EIGENVECTOR FOLLOWING (EF).     
     SCF FIELD WAS ACHIEVED                                   


                              PM3 CALCULATION
                                                       MOPAC2012 (Version: 13.159M)
                                                       Mon Jun  2 11:05:31 2014
                                                       No. of days left =   6




          FINAL HEAT OF FORMATION =         -0.74833 KCAL/MOL =      -3.13102 KJ/MOL


          TOTAL ENERGY            =      -1581.06524 EV
          ELECTRONIC ENERGY       =      -9649.93704 EV  POINT GROUP:     C1  
          CORE-CORE REPULSION     =       8068.87180 EV
          COSMO AREA              =        216.37 SQUARE ANGSTROMS
          COSMO VOLUME            =        226.03 CUBIC ANGSTROMS

          GRADIENT NORM           =          0.03611
          IONIZATION POTENTIAL    =          9.646706 EV
          HOMO LUMO ENERGIES (EV) =         -9.647  1.137
          NO. OF FILLED LEVELS    =         31
          MOLECULAR WEIGHT        =        150.263

          MOLECULAR DIMENSIONS (Angstroms)

            Atom       Atom       Distance
            H    29    H    25     7.99788
            H    24    H    20     7.48119
            H    28    H    13     3.07446


          SCF CALCULATIONS        =        152
          COMPUTATION TIME        =          1.723 SECONDS




   ATOM   CHEMICAL          X               Y               Z
  NUMBER   SYMBOL      (ANGSTROMS)     (ANGSTROMS)     (ANGSTROMS)
 
     1       C          0.81792939  *  -0.93489820  *   0.20930657  *
     2       C         -1.50879264  *   0.01470766  *   0.24096545  *
     3       C         -0.07864788  *   0.20553628  *  -0.26499753  *
     4       C         -2.46539199  *   1.02039089  *  -0.40535779  *
     5       C          0.31299428  *  -2.26063729  *  -0.36082221  *
     6       C          2.27145727  *  -0.70330964  *  -0.20548314  *
     7       C         -2.26078883  *   2.42654926  *   0.11322616  *
     8       C         -1.98378246  *  -1.38332989  *   0.00428883  *
     9       C         -1.16202056  *  -2.40248900  *  -0.24950590  *
    10       C          2.89137760  *   0.42642704  *   0.53981633  *
    11       C          3.62651386  *   1.36484548  *  -0.04534459  *
    12       H          0.76604412  *  -0.98479241  *   1.32540027  *
    13       H         -1.52251888  *   0.17053575  *   1.34982124  *
    14       H          0.32640193  *   1.17445453  *   0.09067127  *
    15       H         -0.06554191  *   0.26057308  *  -1.37243252  *
    16       H         -3.51279163  *   0.70999128  *  -0.21449271  *
    17       H         -2.34642808  *   0.99994663  *  -1.50693963  *
    18       H          0.80889524  *  -3.10655637  *   0.15537492  *
    19       H          0.59114934  *  -2.35340304  *  -1.43114746  *
    20       H          2.86526904  *  -1.61761357  *  -0.00030600  *
    21       H          2.33337219  *  -0.54224731  *  -1.30130762  *
    22       H         -1.25087752  *   2.80038822  *  -0.10451930  *
    23       H         -2.40068886  *   2.48259700  *   1.20114972  *
    24       H         -2.97284123  *   3.12462701  *  -0.34543684  *
    25       H         -1.55864279  *  -3.41245169  *  -0.40391565  *
    26       H         -3.06664145  *  -1.54446972  *   0.06894246  *
    27       H          2.71745016  *   0.43988727  *   1.62302783  *
    28       H          3.81820282  *   1.39168157  *  -1.11467866  *
    29       H          4.09087593  *   2.17467267  *   0.50882164  *

           Empirical Formula: C11 H18  =    29 atoms



      MOLECULAR POINT GROUP   :   C1  


                  EIGENVALUES  
 -41.95300 -36.48558 -33.89430 -30.08277 -28.64279 -25.27045 -23.40632 -20.95316
 -20.25723 -19.88385 -17.88831 -17.09167 -16.43106 -15.65063 -15.60341 -14.93776
 -14.71765 -14.38668 -13.98670 -13.74386 -13.35530 -12.99131 -12.92631 -12.51808
 -12.12806 -11.93024 -11.61619 -11.60406 -11.24886 -10.13219  -9.64671   1.13655
   1.14750   3.21759   3.40708   3.44445   3.62000   3.70538   3.73019   3.82704
   3.89642   3.91729   3.99931   4.05572   4.11290   4.13135   4.25380   4.32307
   4.42778   4.47235   4.49667   4.67436   4.76265   4.94126   4.97463   5.04059
   5.14229   5.21420   5.60955   5.76923   5.86729   5.99525


              NET ATOMIC CHARGES AND DIPOLE CONTRIBUTIONS

  ATOM NO.   TYPE          CHARGE      No. of ELECS.   s-Pop       p-Pop       
    1          C          -0.075120        4.0751     1.17760     2.89752
    2          C          -0.039964        4.0400     1.16550     2.87447
    3          C          -0.103336        4.1033     1.16601     2.93733
    4          C          -0.093655        4.0937     1.16118     2.93247
    5          C          -0.060302        4.0603     1.14972     2.91058
    6          C          -0.069996        4.0700     1.15312     2.91687
    7          C          -0.113355        4.1134     1.13915     2.97421
    8          C          -0.148013        4.1480     1.19792     2.95010
    9          C          -0.147261        4.1473     1.19370     2.95356
   10          C          -0.135822        4.1358     1.19554     2.94028
   11          C          -0.169053        4.1691     1.18277     2.98628
   12          H           0.067731        0.9323     0.93227
   13          H           0.069270        0.9307     0.93073
   14          H           0.060116        0.9399     0.93988
   15          H           0.057951        0.9420     0.94205
   16          H           0.049198        0.9508     0.95080
   17          H           0.052875        0.9471     0.94712
   18          H           0.053801        0.9462     0.94620
   19          H           0.058065        0.9419     0.94194
   20          H           0.057298        0.9427     0.94270
   21          H           0.057688        0.9423     0.94231
   22          H           0.040932        0.9591     0.95907
   23          H           0.038112        0.9619     0.96189
   24          H           0.037481        0.9625     0.96252
   25          H           0.096428        0.9036     0.90357
   26          H           0.099752        0.9002     0.90025
   27          H           0.097925        0.9021     0.90207
   28          H           0.081836        0.9182     0.91816
   29          H           0.079418        0.9206     0.92058
 DIPOLE           X         Y         Z       TOTAL
 POINT-CHG.     0.050    -0.014     0.036     0.063
 HYBRID        -0.003    -0.032    -0.021     0.038
 SUM            0.046    -0.046     0.015     0.067


          ATOMIC ORBITAL ELECTRON POPULATIONS

    Atom      s        px        py        pz   
    1  C   1.17760   0.94040   0.95251   1.00461
    2  C   1.16550   0.94676   0.93071   0.99700
    3  C   1.16601   0.94572   0.98138   1.01023
    4  C   1.16118   0.98549   0.94728   0.99970
    5  C   1.14972   0.93999   0.96606   1.00453
    6  C   1.15312   0.95027   0.97374   0.99287
    7  C   1.13915   1.01067   0.96058   1.00296
    8  C   1.19792   0.98431   0.95279   1.01300
    9  C   1.19370   0.95867   0.97960   1.01530
   10  C   1.19554   0.98247   0.96650   0.99132
   11  C   1.18277   0.99993   0.98385   1.00251
   12  H   0.93227
   13  H   0.93073
   14  H   0.93988
   15  H   0.94205
   16  H   0.95080
   17  H   0.94712
   18  H   0.94620
   19  H   0.94194
   20  H   0.94270
   21  H   0.94231
   22  H   0.95907
   23  H   0.96189
   24  H   0.96252
   25  H   0.90357
   26  H   0.90025
   27  H   0.90207
   28  H   0.91816
   29  H   0.92058
 *******************************************************************************
 ** Site#: 14399           For non-commercial use only        Version 13.159M **
 *******************************************************************************
 ** Cite this work as: MOPAC2012, James J. P. Stewart, Stewart Computational  **
 ** Chemistry, Version 13.159M web: HTTP://OpenMOPAC.net  Days remaining:   6 **
 *******************************************************************************
 **                                                                           **
 **                                MOPAC2012                                  **
 **                                                                           **
 *******************************************************************************

                            PM3 CALCULATION RESULTS


 *******************************************************************************
 *  CALCULATION DONE:                                Mon Jun  2 11:05:31 2014  *
 *  PM3      - The PM3 Hamiltonian to be used
 *  OLDGEO   - PREVIOUS GEOMETRY TO BE USED
 *  PRECISE  - CRITERIA TO BE INCREASED BY 100 TIMES
 *  NOSYM    - POINT-GROUP SYMMETRY SET TO C1
 *  T=       - A TIME OF 172800.0 SECONDS REQUESTED
 *  DUMP=N   - RESTART FILE WRITTEN EVERY  7200.000 SECONDS
 *  THERMO   - THERMODYNAMIC QUANTITIES TO BE CALCULATED
 *******************************************************************************
oldgeo thermo nosym precise  pm3

   ATOM   CHEMICAL          X               Y               Z
  NUMBER   SYMBOL      (ANGSTROMS)     (ANGSTROMS)     (ANGSTROMS)
 
     1       C          0.81792939  *  -0.93489820  *   0.20930657  *
     2       C         -1.50879264  *   0.01470766  *   0.24096545  *
     3       C         -0.07864788  *   0.20553628  *  -0.26499753  *
     4       C         -2.46539199  *   1.02039089  *  -0.40535779  *
     5       C          0.31299428  *  -2.26063729  *  -0.36082221  *
     6       C          2.27145727  *  -0.70330964  *  -0.20548314  *
     7       C         -2.26078883  *   2.42654926  *   0.11322616  *
     8       C         -1.98378246  *  -1.38332989  *   0.00428883  *
     9       C         -1.16202056  *  -2.40248900  *  -0.24950590  *
    10       C          2.89137760  *   0.42642704  *   0.53981633  *
    11       C          3.62651386  *   1.36484548  *  -0.04534459  *
    12       H          0.76604412  *  -0.98479241  *   1.32540027  *
    13       H         -1.52251888  *   0.17053575  *   1.34982124  *
    14       H          0.32640193  *   1.17445453  *   0.09067127  *
    15       H         -0.06554191  *   0.26057308  *  -1.37243252  *
    16       H         -3.51279163  *   0.70999128  *  -0.21449271  *
    17       H         -2.34642808  *   0.99994663  *  -1.50693963  *
    18       H          0.80889524  *  -3.10655637  *   0.15537492  *
    19       H          0.59114934  *  -2.35340304  *  -1.43114746  *
    20       H          2.86526904  *  -1.61761357  *  -0.00030600  *
    21       H          2.33337219  *  -0.54224731  *  -1.30130762  *
    22       H         -1.25087752  *   2.80038822  *  -0.10451930  *
    23       H         -2.40068886  *   2.48259700  *   1.20114972  *
    24       H         -2.97284123  *   3.12462701  *  -0.34543684  *
    25       H         -1.55864279  *  -3.41245169  *  -0.40391565  *
    26       H         -3.06664145  *  -1.54446972  *   0.06894246  *
    27       H          2.71745016  *   0.43988727  *   1.62302783  *
    28       H          3.81820282  *   1.39168157  *  -1.11467866  *
    29       H          4.09087593  *   2.17467267  *   0.50882164  *
 


          CARTESIAN COORDINATES 

    NO.       ATOM         X         Y         Z

     1         C        0.8179   -0.9349    0.2093
     2         C       -1.5088    0.0147    0.2410
     3         C       -0.0786    0.2055   -0.2650
     4         C       -2.4654    1.0204   -0.4054
     5         C        0.3130   -2.2606   -0.3608
     6         C        2.2715   -0.7033   -0.2055
     7         C       -2.2608    2.4265    0.1132
     8         C       -1.9838   -1.3833    0.0043
     9         C       -1.1620   -2.4025   -0.2495
    10         C        2.8914    0.4264    0.5398
    11         C        3.6265    1.3648   -0.0453
    12         H        0.7660   -0.9848    1.3254
    13         H       -1.5225    0.1705    1.3498
    14         H        0.3264    1.1745    0.0907
    15         H       -0.0655    0.2606   -1.3724
    16         H       -3.5128    0.7100   -0.2145
    17         H       -2.3464    0.9999   -1.5069
    18         H        0.8089   -3.1066    0.1554
    19         H        0.5911   -2.3534   -1.4311
    20         H        2.8653   -1.6176   -0.0003
    21         H        2.3334   -0.5422   -1.3013
    22         H       -1.2509    2.8004   -0.1045
    23         H       -2.4007    2.4826    1.2011
    24         H       -2.9728    3.1246   -0.3454
    25         H       -1.5586   -3.4125   -0.4039
    26         H       -3.0666   -1.5445    0.0689
    27         H        2.7175    0.4399    1.6230
    28         H        3.8182    1.3917   -1.1147
    29         H        4.0909    2.1747    0.5088

  H: (PM3): J. J. P. STEWART, J. COMP. CHEM. 10, 209 (1989).
  C: (PM3): J. J. P. STEWART, J. COMP. CHEM. 10, 209 (1989).

           Empirical Formula: C11 H18  =    29 atoms



      MOLECULAR POINT GROUP   :   C1  


      RHF CALCULATION, NO. OF DOUBLY OCCUPIED LEVELS =   31



          HEAT OF FORMATION =      -0.748331 KCALS/MOLE


          INTERNAL COORDINATE DERIVATIVES

   NUMBER  ATOM       BOND         ANGLE      DIHEDRAL

     1       C     -0.000090     0.002397    -0.000266
     2       C      0.002521    -0.000885     0.000658
     3       C      0.003280    -0.001081    -0.000910
     4       C     -0.002939     0.003000    -0.000780
     5       C      0.001126     0.001777     0.001360
     6       C     -0.000485     0.001013     0.000484
     7       C     -0.001185     0.001591    -0.000794
     8       C      0.003871     0.000107    -0.000396
     9       C      0.001917     0.001547    -0.002037
    10       C     -0.006357    -0.011094     0.001291
    11       C     -0.002525     0.005705    -0.004424
    12       H     -0.014941     0.005685    -0.004710
    13       H      0.009313     0.000265    -0.000356
    14       H      0.005849     0.001227     0.001011
    15       H      0.003296    -0.002819     0.002320
    16       H     -0.002003     0.001807    -0.001281
    17       H     -0.000096    -0.004686     0.005174
    18       H     -0.000559    -0.001227     0.001746
    19       H     -0.004231     0.001710    -0.001334
    20       H      0.002594    -0.002199     0.002078
    21       H     -0.009436     0.003172    -0.001939
    22       H      0.002062     0.001420    -0.002203
    23       H     -0.002291    -0.005602     0.004010
    24       H     -0.004194     0.001419    -0.002656
    25       H     -0.000850     0.003933    -0.000036
    26       H      0.002724    -0.003977    -0.001734
    27       H      0.007472    -0.004591    -0.002408
    28       H      0.004475    -0.000727     0.008070
    29       H      0.001681     0.001112     0.000062


          GRADIENT NORM =   0.03522


          TIME FOR SCF CALCULATION =    0.01

          TIME FOR DERIVATIVES     =    0.01

          MOLECULAR WEIGHT =  150.26



          ROTATIONAL CONSTANTS IN CM(-1)

          A =    0.04571165   B =    0.02463099   C =    0.01683806



           PRINCIPAL MOMENTS OF INERTIA IN UNITS OF 10**(-40)*GRAM-CM**2

          A =      612.3772   B =     1136.4859   C =     1662.4702


          ORIENTATION OF MOLECULE IN FORCE CALCULATION

    NO.       ATOM         X         Y         Z

     1          C      -1.0138   -0.4953    0.0165
     2          C       1.4995   -0.4953    0.0165
     3          C       0.2412    0.3733    0.0165
     4          C       2.7569    0.3487    0.2417
     5          C      -1.0544   -1.3447    1.2871
     6          C      -2.2772    0.3603   -0.0851
     7          C       3.1053    1.1972   -0.9611
     8          C       1.4080   -1.5791    1.0427
     9          C       0.2589   -1.9667    1.5975
    10          C      -2.4148    0.9956   -1.4243
    11          C      -2.7482    2.2701   -1.5917
    12          H      -0.9706   -1.1791   -0.8674
    13          H       1.5850   -1.0056   -0.9766
    14          H       0.2368    1.0396   -0.8698
    15          H       0.2359    1.0444    0.8992
    16          H       3.6117   -0.3169    0.4786
    17          H       2.6252    0.9909    1.1352
    18          H      -1.8266   -2.1333    1.1891
    19          H      -1.3605   -0.7269    2.1568
    20          H      -3.1698   -0.2754    0.0873
    21          H      -2.2874    1.1211    0.7222
    22          H       2.3089    1.9152   -1.2003
    23          H       3.2697    0.5836   -1.8571
    24          H       4.0225    1.7740   -0.7857
    25          H       0.2426   -2.7754    2.3371
    26          H       2.3504   -2.0699    1.3142
    27          H      -2.2351    0.3416   -2.2867
    28          H      -2.9290    2.9526   -0.7656
    29          H      -2.8651    2.7204   -2.5726


    FIRST DERIVATIVES WILL BE USED IN THE CALCULATION OF SECOND DERIVATIVES

          ESTIMATED TIME TO COMPLETE CALCULATION =        5.52 SECONDS

    FOR POINT-GROUP C1   THERE ARE   1 UNIQUE SYMMETRY FUNCTIONS.

 STEP:   1 TIME =     0.05 SECS, INTEGRAL =      0.05 TIME LEFT: 172799.93
 STEP:   2 TIME =     0.05 SECS, INTEGRAL =      0.10 TIME LEFT: 172799.88
 STEP:   3 TIME =     0.05 SECS, INTEGRAL =      0.15 TIME LEFT: 172799.83
 STEP:   4 TIME =     0.05 SECS, INTEGRAL =      0.20 TIME LEFT: 172799.78
 STEP:   5 TIME =     0.05 SECS, INTEGRAL =      0.25 TIME LEFT: 172799.73
 STEP:   6 TIME =     0.05 SECS, INTEGRAL =      0.30 TIME LEFT: 172799.68
 STEP:   7 TIME =     0.05 SECS, INTEGRAL =      0.35 TIME LEFT: 172799.63
 STEP:   8 TIME =     0.05 SECS, INTEGRAL =      0.40 TIME LEFT: 172799.58
 STEP:   9 TIME =     0.05 SECS, INTEGRAL =      0.45 TIME LEFT: 172799.53
 STEP:  10 TIME =     0.05 SECS, INTEGRAL =      0.50 TIME LEFT: 172799.48
 STEP:  11 TIME =     0.05 SECS, INTEGRAL =      0.55 TIME LEFT: 172799.43
 STEP:  12 TIME =     0.05 SECS, INTEGRAL =      0.60 TIME LEFT: 172799.39
 STEP:  13 TIME =     0.05 SECS, INTEGRAL =      0.65 TIME LEFT: 172799.34
 STEP:  14 TIME =     0.05 SECS, INTEGRAL =      0.70 TIME LEFT: 172799.29
 STEP:  15 TIME =     0.05 SECS, INTEGRAL =      0.75 TIME LEFT: 172799.24
 STEP:  16 TIME =     0.05 SECS, INTEGRAL =      0.80 TIME LEFT: 172799.19
 STEP:  17 TIME =     0.05 SECS, INTEGRAL =      0.84 TIME LEFT: 172799.14
 STEP:  18 TIME =     0.05 SECS, INTEGRAL =      0.90 TIME LEFT: 172799.08
 STEP:  19 TIME =     0.05 SECS, INTEGRAL =      0.95 TIME LEFT: 172799.04
 STEP:  20 TIME =     0.05 SECS, INTEGRAL =      1.00 TIME LEFT: 172798.99
 STEP:  21 TIME =     0.05 SECS, INTEGRAL =      1.04 TIME LEFT: 172798.94
 STEP:  22 TIME =     0.05 SECS, INTEGRAL =      1.09 TIME LEFT: 172798.89
 STEP:  23 TIME =     0.05 SECS, INTEGRAL =      1.14 TIME LEFT: 172798.84
 STEP:  24 TIME =     0.05 SECS, INTEGRAL =      1.20 TIME LEFT: 172798.79
 STEP:  25 TIME =     0.05 SECS, INTEGRAL =      1.24 TIME LEFT: 172798.74
 STEP:  26 TIME =     0.05 SECS, INTEGRAL =      1.30 TIME LEFT: 172798.69
 STEP:  27 TIME =     0.05 SECS, INTEGRAL =      1.34 TIME LEFT: 172798.64
 STEP:  28 TIME =     0.05 SECS, INTEGRAL =      1.40 TIME LEFT: 172798.59
 STEP:  29 TIME =     0.05 SECS, INTEGRAL =      1.45 TIME LEFT: 172798.54
 STEP:  30 TIME =     0.05 SECS, INTEGRAL =      1.49 TIME LEFT: 172798.49
 STEP:  31 TIME =     0.05 SECS, INTEGRAL =      1.55 TIME LEFT: 172798.44
 STEP:  32 TIME =     0.05 SECS, INTEGRAL =      1.59 TIME LEFT: 172798.39
 STEP:  33 TIME =     0.05 SECS, INTEGRAL =      1.64 TIME LEFT: 172798.34
 STEP:  34 TIME =     0.05 SECS, INTEGRAL =      1.69 TIME LEFT: 172798.29
 STEP:  35 TIME =     0.05 SECS, INTEGRAL =      1.74 TIME LEFT: 172798.24
 STEP:  36 TIME =     0.05 SECS, INTEGRAL =      1.79 TIME LEFT: 172798.19
 STEP:  37 TIME =     0.05 SECS, INTEGRAL =      1.84 TIME LEFT: 172798.14
 STEP:  38 TIME =     0.05 SECS, INTEGRAL =      1.89 TIME LEFT: 172798.09
 STEP:  39 TIME =     0.05 SECS, INTEGRAL =      1.95 TIME LEFT: 172798.04
 STEP:  40 TIME =     0.05 SECS, INTEGRAL =      2.00 TIME LEFT: 172797.99
 STEP:  41 TIME =     0.06 SECS, INTEGRAL =      2.06 TIME LEFT: 172797.93
 STEP:  42 TIME =     0.05 SECS, INTEGRAL =      2.11 TIME LEFT: 172797.88
 STEP:  43 TIME =     0.05 SECS, INTEGRAL =      2.16 TIME LEFT: 172797.83
 STEP:  44 TIME =     0.05 SECS, INTEGRAL =      2.21 TIME LEFT: 172797.77
 STEP:  45 TIME =     0.05 SECS, INTEGRAL =      2.26 TIME LEFT: 172797.72
 STEP:  46 TIME =     0.05 SECS, INTEGRAL =      2.31 TIME LEFT: 172797.67
 STEP:  47 TIME =     0.05 SECS, INTEGRAL =      2.36 TIME LEFT: 172797.62
 STEP:  48 TIME =     0.05 SECS, INTEGRAL =      2.41 TIME LEFT: 172797.57
 STEP:  49 TIME =     0.05 SECS, INTEGRAL =      2.47 TIME LEFT: 172797.52
 STEP:  50 TIME =     0.06 SECS, INTEGRAL =      2.52 TIME LEFT: 172797.46
 STEP:  51 TIME =     0.05 SECS, INTEGRAL =      2.57 TIME LEFT: 172797.41
 STEP:  52 TIME =     0.07 SECS, INTEGRAL =      2.64 TIME LEFT: 172797.35
 STEP:  53 TIME =     0.05 SECS, INTEGRAL =      2.69 TIME LEFT: 172797.29
 STEP:  54 TIME =     0.05 SECS, INTEGRAL =      2.74 TIME LEFT: 172797.24
 STEP:  55 TIME =     0.05 SECS, INTEGRAL =      2.79 TIME LEFT: 172797.19
 STEP:  56 TIME =     0.05 SECS, INTEGRAL =      2.84 TIME LEFT: 172797.14
 STEP:  57 TIME =     0.05 SECS, INTEGRAL =      2.89 TIME LEFT: 172797.09
 STEP:  58 TIME =     0.05 SECS, INTEGRAL =      2.94 TIME LEFT: 172797.04
 STEP:  59 TIME =     0.05 SECS, INTEGRAL =      2.99 TIME LEFT: 172796.99
 STEP:  60 TIME =     0.06 SECS, INTEGRAL =      3.06 TIME LEFT: 172796.92
 STEP:  61 TIME =     0.07 SECS, INTEGRAL =      3.13 TIME LEFT: 172796.86
 STEP:  62 TIME =     0.06 SECS, INTEGRAL =      3.19 TIME LEFT: 172796.80
 STEP:  63 TIME =     0.05 SECS, INTEGRAL =      3.24 TIME LEFT: 172796.75
 STEP:  64 TIME =     0.05 SECS, INTEGRAL =      3.29 TIME LEFT: 172796.70
 STEP:  65 TIME =     0.05 SECS, INTEGRAL =      3.34 TIME LEFT: 172796.64
 STEP:  66 TIME =     0.05 SECS, INTEGRAL =      3.39 TIME LEFT: 172796.59
 STEP:  67 TIME =     0.06 SECS, INTEGRAL =      3.45 TIME LEFT: 172796.53
 STEP:  68 TIME =     0.06 SECS, INTEGRAL =      3.51 TIME LEFT: 172796.48
 STEP:  69 TIME =     0.07 SECS, INTEGRAL =      3.57 TIME LEFT: 172796.41
 STEP:  70 TIME =     0.07 SECS, INTEGRAL =      3.64 TIME LEFT: 172796.34
 STEP:  71 TIME =     0.06 SECS, INTEGRAL =      3.71 TIME LEFT: 172796.28
 STEP:  72 TIME =     0.06 SECS, INTEGRAL =      3.77 TIME LEFT: 172796.22
 STEP:  73 TIME =     0.06 SECS, INTEGRAL =      3.82 TIME LEFT: 172796.16
 STEP:  74 TIME =     0.06 SECS, INTEGRAL =      3.88 TIME LEFT: 172796.10
 STEP:  75 TIME =     0.05 SECS, INTEGRAL =      3.93 TIME LEFT: 172796.05
 STEP:  76 TIME =     0.05 SECS, INTEGRAL =      3.99 TIME LEFT: 172796.00
 STEP:  77 TIME =     0.05 SECS, INTEGRAL =      4.04 TIME LEFT: 172795.94
 STEP:  78 TIME =     0.05 SECS, INTEGRAL =      4.09 TIME LEFT: 172795.89
 STEP:  79 TIME =     0.05 SECS, INTEGRAL =      4.15 TIME LEFT: 172795.84
 STEP:  80 TIME =     0.05 SECS, INTEGRAL =      4.20 TIME LEFT: 172795.79
 STEP:  81 TIME =     0.05 SECS, INTEGRAL =      4.25 TIME LEFT: 172795.74
 STEP:  82 TIME =     0.05 SECS, INTEGRAL =      4.30 TIME LEFT: 172795.68
 STEP:  83 TIME =     0.06 SECS, INTEGRAL =      4.36 TIME LEFT: 172795.63
 STEP:  84 TIME =     0.06 SECS, INTEGRAL =      4.41 TIME LEFT: 172795.57
 STEP:  85 TIME =     0.06 SECS, INTEGRAL =      4.48 TIME LEFT: 172795.51
 STEP:  86 TIME =     0.05 SECS, INTEGRAL =      4.53 TIME LEFT: 172795.46
 STEP:  87 TIME =     0.06 SECS, INTEGRAL =      4.59 TIME LEFT: 172795.40

(To convert to Hartree/Bohr^2, multiply by (10^(-21) x N x a0^2)/(4.184 x 627.51) = 0.0642)


           FORCE MATRIX IN MILLIDYNES/ANGSTROM


                  C  1       C  2       C  3       C  4       C  5       C  6
 ------------------------------------------------------------------------------
     C    1  14.352193
     C    2   0.644545  14.609031
     C    3   3.969157   3.891968  14.379573
     C    4   0.050640   3.817425   0.612316  14.293067
     C    5   3.903391   0.099259   0.667029   0.008444  14.731604
     C    6   3.867617   0.052401   0.624327   0.010399   0.640843  14.653213
     C    7   0.002972   0.622138   0.050476   4.448988   0.001631   0.000666
     C    8   0.066367   4.687878   0.683712   0.691975   0.832152   0.004544
     C    9   0.670435   0.805535   0.072656   0.044020   5.018468   0.051243
     C   10   0.670212   0.003834   0.048029   0.001316   0.050786   4.943628
     C   11   0.043268   0.001464   0.006614   0.000838   0.009493   0.832720
     H   12   4.190690   0.033713   0.427216   0.001391   0.422169   0.427982
     H   13   0.020334   4.130168   0.428664   0.432947   0.013014   0.001264
     H   14   0.442895   0.437023   4.435067   0.016563   0.049639   0.032723
     H   15   0.449520   0.449240   4.432068   0.037376   0.024739   0.023857
     H   16   0.008322   0.441202   0.045579   4.427918   0.001000   0.001973
     H   17   0.002168   0.447866   0.035024   4.454108   0.000867   0.000733
     H   18   0.435382   0.009269   0.047816   0.000662   4.448066   0.022080
     H   19   0.451816   0.014040   0.012751   0.000880   4.386071   0.043631
     H   20   0.443287   0.008632   0.047099   0.002019   0.044597   4.404793
     H   21   0.445959   0.002143   0.028226   0.000769   0.023139   4.417005
     H   22   0.000962   0.016803   0.019851   0.463694   0.000556   0.000319
     H   23   0.000295   0.024403   0.002359   0.463109   0.000265   0.000196
     H   24   0.000364   0.050412   0.002371   0.449192   0.000336   0.000200
     H   25   0.041938   0.119309   0.004201   0.013901   0.425499   0.007742
     H   26   0.003766   0.430884   0.040326   0.045176   0.121089   0.000966
     H   27   0.030477   0.000938   0.005232   0.000577   0.001943   0.433166
     H   28   0.009451   0.000447   0.000709   0.000241   0.001859   0.097695
     H   29   0.016554   0.000390   0.000826   0.000253   0.002662   0.137227


                  C  7       C  8       C  9       C 10       C 11       H 12
 ------------------------------------------------------------------------------
     C    7  14.340914
     C    8   0.052977  18.236331
     C    9   0.009863  10.706889  18.226701
     C   10   0.001415   0.001125   0.011298  18.166097
     C   11   0.001265   0.001426   0.002851  11.071867  18.035625
     H   12   0.000498   0.007317   0.012246   0.042757   0.002290   4.676482
     H   13   0.037319   0.384918   0.029721   0.000640   0.000427   0.018350
     H   14   0.018137   0.049031   0.003981   0.012707   0.005476   0.026803
     H   15   0.003105   0.010729   0.007179   0.002537   0.000740   0.042875
     H   16   0.435212   0.065277   0.002835   0.000625   0.000324   0.000428
     H   17   0.437371   0.010680   0.001699   0.000332   0.000320   0.000536
     H   18   0.000166   0.042438   0.429923   0.001520   0.000818   0.035987
     H   19   0.000378   0.030439   0.410970   0.002049   0.001006   0.041184
     H   20   0.000282   0.001282   0.002047   0.406863   0.032575   0.022739
     H   21   0.000255   0.000797   0.001410   0.457549   0.047222   0.041750
     H   22   4.703700   0.000881   0.000736   0.000565   0.000453   0.000180
     H   23   4.718971   0.001853   0.000747   0.000343   0.000204   0.000126
     H   24   4.747058   0.009046   0.002004   0.000374   0.000312   0.000132
     H   25   0.002006   0.443155   4.816619   0.001805   0.000592   0.001155
     H   26   0.002545   4.789937   0.441600   0.000687   0.000254   0.000458
     H   27   0.000549   0.000634   0.001079   4.779311   0.453513   0.029211
     H   28   0.000405   0.000412   0.000574   0.490583   5.072531   0.000605
     H   29   0.000159   0.000351   0.000824   0.462615   5.108403   0.000638


                  H 13       H 14       H 15       H 16       H 17       H 18
 ------------------------------------------------------------------------------
     H   13   4.599278
     H   14   0.033766   5.043773
     H   15   0.042066   0.560330   5.051980
     H   16   0.020095   0.001214   0.002158   5.045722
     H   17   0.042429   0.001683   0.029835   0.572299   5.072717
     H   18   0.001000   0.008083   0.002405   0.000326   0.000305   5.047987
     H   19   0.001960   0.001383   0.008928   0.000262   0.000321   0.564636
     H   20   0.000393   0.001964   0.001540   0.000427   0.000166   0.020013
     H   21   0.000531   0.002405   0.021295   0.000147   0.000216   0.001208
     H   22   0.002096   0.022400   0.001314   0.048219   0.024322   0.000259
     H   23   0.025973   0.000711   0.000464   0.025347   0.047181   0.000093
     H   24   0.002409   0.000658   0.000297   0.032427   0.029885   0.000124
     H   25   0.015203   0.000952   0.000574   0.000682   0.000322   0.035415
     H   26   0.017088   0.006663   0.001423   0.026110   0.002341   0.013508
     H   27   0.000254   0.002598   0.000673   0.000149   0.000128   0.000530
     H   28   0.000138   0.000600   0.000285   0.000089   0.000142   0.000144
     H   29   0.000128   0.000639   0.000124   0.000096   0.000081   0.000174


                  H 19       H 20       H 21       H 22       H 23       H 24
 ------------------------------------------------------------------------------
     H   19   4.991832
     H   20   0.005519   5.001652
     H   21   0.022585   0.559143   5.031121
     H   22   0.000145   0.000081   0.000100   5.442370
     H   23   0.000090   0.000094   0.000058   0.576951   5.463499
     H   24   0.000068   0.000087   0.000109   0.573241   0.573604   5.486129
     H   25   0.020018   0.000533   0.000426   0.000212   0.000150   0.000441
     H   26   0.016826   0.000285   0.000339   0.000739   0.000699   0.000519
     H   27   0.000586   0.016293   0.038183   0.000346   0.000157   0.000085
     H   28   0.000179   0.012498   0.028754   0.000193   0.000077   0.000111
     H   29   0.000190   0.018264   0.003558   0.000178   0.000088   0.000109


                  H 25       H 26       H 27       H 28       H 29
 ------------------------------------------------------------------
     H   25   5.190811
     H   26   0.068818   5.168694
     H   27   0.000194   0.000293   5.153164
     H   28   0.000219   0.000153   0.119453   5.468261
     H   29   0.000187   0.000114   0.080901   0.423214   5.497238


          HEAT OF FORMATION =      -0.748331 KCALS/MOLE

          ZERO POINT ENERGY     162.834 KCAL/MOL


           NORMAL COORDINATE ANALYSIS (Total motion = 1 Angstrom)


   Root No.       1         2         3         4         5         6         7         8

                 1 A       2 A       3 A       4 A       5 A       6 A       7 A       8 A   

                  59.0      65.8      84.6     102.0     134.2     176.8     207.6     243.2
  
           1   -0.0068   -0.0014   -0.0050    0.0076   -0.0019   -0.0017    0.0065   -0.0143
           2   -0.0172    0.0036    0.0093    0.0115    0.0048   -0.0040    0.0078   -0.0065
           3   -0.0013    0.0100    0.0081    0.0009    0.0207    0.0033   -0.0038    0.0093
           4   -0.0084   -0.0007   -0.0055    0.0012   -0.0107    0.0041   -0.0001   -0.0122
           5    0.0022   -0.0114    0.0157    0.0022    0.0116   -0.0098   -0.0009    0.0019
           6    0.0028   -0.0117   -0.0011    0.0156   -0.0011    0.0027   -0.0033   -0.0230
           7   -0.0141    0.0040   -0.0074    0.0078   -0.0086    0.0029    0.0056   -0.0147
           8   -0.0069   -0.0046    0.0132    0.0112    0.0145   -0.0137    0.0109   -0.0033
           9   -0.0003   -0.0064    0.0157    0.0386    0.0338   -0.0071    0.0140   -0.0031
          10   -0.0138    0.0036   -0.0061    0.0131   -0.0054   -0.0123    0.0162   -0.0023
          11    0.0139   -0.0193    0.0146   -0.0092    0.0035    0.0136   -0.0235   -0.0119
          12   -0.0131   -0.0066    0.0086   -0.0138   -0.0041    0.0058   -0.0112   -0.0180
          13   -0.0038    0.0040    0.0008   -0.0074    0.0027    0.0009   -0.0009   -0.0102
          14   -0.0135    0.0157   -0.0053   -0.0237    0.0101   -0.0087    0.0121   -0.0248
          15    0.0012    0.0179   -0.0018   -0.0230    0.0237   -0.0002   -0.0004   -0.0038
          16   -0.0120    0.0040   -0.0079    0.0096   -0.0075    0.0151   -0.0080   -0.0069
          17   -0.0260    0.0115    0.0066    0.0148   -0.0097    0.0233   -0.0161    0.0057
          18   -0.0096    0.0093    0.0180    0.0043   -0.0084    0.0132   -0.0144    0.0174
          19   -0.0332   -0.0273    0.0221   -0.0218   -0.0022   -0.0255    0.0037    0.0294
          20    0.0105    0.0360   -0.0110    0.0015   -0.0052    0.0029    0.0042    0.0119
          21   -0.0214    0.0237   -0.0013   -0.0167   -0.0097   -0.0063    0.0054    0.0094
          22    0.0008   -0.0026   -0.0007    0.0017   -0.0040    0.0032   -0.0029   -0.0035
          23    0.0122   -0.0153   -0.0014    0.0052   -0.0113   -0.0094    0.0014    0.0154
          24    0.0142   -0.0157   -0.0188    0.0187   -0.0240    0.0020   -0.0001   -0.0065
          25    0.0024    0.0001    0.0024   -0.0041    0.0018    0.0011   -0.0031    0.0057
          26    0.0047   -0.0025   -0.0106   -0.0070   -0.0122   -0.0114    0.0119    0.0183
          27    0.0126   -0.0011   -0.0187   -0.0012   -0.0116   -0.0032    0.0067    0.0140
          28    0.0170   -0.0023   -0.0300    0.0001    0.0365    0.0169   -0.0171    0.0191
          29    0.0011   -0.0111   -0.0219   -0.0007    0.0024    0.0097   -0.0063    0.0017
          30    0.0001   -0.0009    0.0067   -0.0022   -0.0079    0.0060   -0.0082    0.0124
          31    0.0742    0.0193    0.0320   -0.0046   -0.0005   -0.0005   -0.0006    0.0044
          32    0.0184   -0.0083   -0.0090   -0.0038   -0.0076    0.0025    0.0008   -0.0055
          33    0.0190   -0.0217   -0.0165   -0.0167   -0.0101   -0.0138    0.0118   -0.0095
          34    0.0009   -0.0119   -0.0040    0.0192    0.0159   -0.0181    0.0228   -0.0223
          35   -0.0190   -0.0054    0.0186    0.0341   -0.0007   -0.0028    0.0081    0.0002
          36    0.0004    0.0164    0.0009   -0.0163    0.0254    0.0017   -0.0032    0.0031
          37   -0.0092   -0.0039   -0.0074   -0.0218   -0.0264    0.0162   -0.0158   -0.0207
          38   -0.0077   -0.0060    0.0310   -0.0004    0.0317   -0.0114    0.0030    0.0035
          39    0.0077   -0.0146   -0.0092    0.0147   -0.0130    0.0047   -0.0064   -0.0237
          40   -0.0178    0.0002   -0.0120    0.0153   -0.0168    0.0043    0.0083   -0.0304
          41   -0.0080   -0.0103    0.0259    0.0413    0.0383   -0.0224    0.0293    0.0005
          42   -0.0013   -0.0107    0.0255    0.0612    0.0518   -0.0144    0.0281   -0.0001
          43   -0.0206    0.0159   -0.0063    0.0071   -0.0040    0.0039    0.0085   -0.0050
          44   -0.0058    0.0014    0.0005   -0.0196   -0.0097   -0.0036   -0.0082   -0.0077
          45   -0.0012   -0.0108    0.0255    0.0618    0.0521   -0.0143    0.0282    0.0002
          46   -0.0060    0.0097   -0.0131    0.0159   -0.0091   -0.0003    0.0132   -0.0119
          47    0.0223   -0.0295    0.0163   -0.0178   -0.0003    0.0362   -0.0398   -0.0287
          48   -0.0178   -0.0575    0.0388   -0.0485   -0.0016    0.0240   -0.0456   -0.0278
          49   -0.0109    0.0244   -0.0210    0.0452   -0.0005   -0.0340    0.0407    0.0026
          50    0.0175   -0.0596    0.0326   -0.0180    0.0089    0.0247   -0.0454   -0.0289
          51   -0.0154    0.0254   -0.0066   -0.0029   -0.0073   -0.0051    0.0082   -0.0048
          52    0.0071   -0.0103   -0.0008    0.0113   -0.0145   -0.0004   -0.0006    0.0245
          53   -0.0237    0.0274   -0.0031   -0.0369    0.0249   -0.0072    0.0118   -0.0553
          54   -0.0011    0.0374   -0.0063   -0.0648    0.0425   -0.0019   -0.0009   -0.0352
          55   -0.0174    0.0285    0.0070   -0.0437    0.0342    0.0031   -0.0046   -0.0572
          56   -0.0147    0.0283   -0.0148   -0.0531    0.0186   -0.0119    0.0159   -0.0522
          57   -0.0027    0.0175    0.0071   -0.0150    0.0285    0.0028   -0.0044   -0.0013
          58   -0.0105    0.0006   -0.0049    0.0086   -0.0060    0.0024    0.0040   -0.0150
          59   -0.0366    0.0217    0.0105    0.0199   -0.0219    0.0468   -0.0372    0.0171
          60   -0.0423    0.0289    0.0472    0.0186   -0.0466    0.0323   -0.0277    0.0148
          61   -0.0353    0.0182    0.0077    0.0193   -0.0437    0.0433   -0.0316    0.0002
          62   -0.0428    0.0253    0.0221    0.0233   -0.0188    0.0335   -0.0235    0.0069
          63    0.0060   -0.0035    0.0035   -0.0037   -0.0007    0.0039   -0.0077    0.0160
          64   -0.0395   -0.0291    0.0250   -0.0237   -0.0026   -0.0876   -0.0542    0.0344
          65    0.0058    0.0539   -0.0206    0.0119   -0.0084   -0.0925   -0.0770    0.0128
          66   -0.0144    0.0831   -0.0391    0.0202   -0.0182   -0.0871   -0.0466   -0.0027
          67   -0.0417   -0.0599    0.0495   -0.0601    0.0019    0.0972    0.1184    0.0629
          68    0.0074    0.0779   -0.0305    0.0102   -0.0120   -0.0168    0.0150    0.0305
          69   -0.0208   -0.0109    0.0170   -0.0297   -0.0044    0.0297    0.0193    0.0030
          70   -0.0336   -0.0176    0.0146   -0.0100   -0.0037   -0.0984   -0.0643    0.0209
          71    0.0155    0.0206   -0.0026   -0.0092   -0.0026    0.1082    0.0966    0.0129
          72   -0.0356    0.0233    0.0102   -0.0433   -0.0113    0.0284    0.0576    0.0526
          73    0.0082   -0.0002    0.0065   -0.0077    0.0066   -0.0007   -0.0054    0.0250
          74    0.0114   -0.0044   -0.0225   -0.0064   -0.0281   -0.0147    0.0193    0.0425
          75    0.0200   -0.0033   -0.0317   -0.0006   -0.0292   -0.0067    0.0147    0.0412
          76    0.0052   -0.0052    0.0007    0.0031   -0.0039    0.0031   -0.0050    0.0017
          77    0.0259   -0.0284   -0.0061    0.0181   -0.0271   -0.0084   -0.0024    0.0292
          78    0.0233   -0.0303   -0.0319    0.0365   -0.0527    0.0037    0.0000    0.0013
          79   -0.0086   -0.0251   -0.0987   -0.0036    0.1038    0.0342   -0.0409    0.0591
          80    0.0063   -0.0309   -0.0555   -0.0103    0.0197    0.0034   -0.0022    0.0015
          81   -0.0092    0.0093    0.0178    0.0042   -0.0071    0.0141   -0.0160    0.0203
          82    0.1021    0.0417    0.1002   -0.0021   -0.0674   -0.0195    0.0250   -0.0378
          83    0.0137    0.0110    0.0239    0.0062   -0.0236    0.0108   -0.0062   -0.0013
          84    0.0291   -0.0328   -0.0288   -0.0244   -0.0115   -0.0249    0.0234   -0.0224
          85    0.0979    0.0162    0.0192   -0.0114    0.0331    0.0024   -0.0112    0.0333
          86    0.0391   -0.0251   -0.0302   -0.0168   -0.0008   -0.0128    0.0148   -0.0169
          87    0.0257   -0.0291   -0.0248   -0.0218   -0.0110   -0.0212    0.0196   -0.0182


   Root No.       9        10        11        12        13        14        15        16

                 9 A      10 A      11 A      12 A      13 A      14 A      15 A      16 A   

                 328.0     363.5     373.1     427.8     464.7     477.4     505.1     558.9
  
           1    0.0011    0.0185    0.0066    0.0019   -0.0064    0.0148    0.0320   -0.0034
           2   -0.0077    0.0197   -0.0144    0.0132   -0.0050    0.0302   -0.0260   -0.0053
           3   -0.0043   -0.0065   -0.0033   -0.0004    0.0276    0.0297   -0.0113   -0.0227
           4   -0.0019   -0.0039    0.0028    0.0242    0.0186   -0.0134   -0.0135   -0.0141
           5   -0.0152    0.0048   -0.0037   -0.0212    0.0183   -0.0163    0.0148    0.0114
           6   -0.0171   -0.0112   -0.0047   -0.0006    0.0103   -0.0010    0.0011    0.0389
           7    0.0004    0.0114    0.0040    0.0224    0.0006    0.0128   -0.0016   -0.0155
           8   -0.0126    0.0256   -0.0108   -0.0153   -0.0051    0.0209    0.0174    0.0105
           9    0.0240   -0.0140    0.0127    0.0061   -0.0073   -0.0096   -0.0053   -0.0027
          10   -0.0207   -0.0069   -0.0054    0.0062    0.0343   -0.0269   -0.0060    0.0014
          11    0.0043   -0.0044    0.0172    0.0178    0.0083    0.0013    0.0003    0.0054
          12    0.0092    0.0192   -0.0178   -0.0057    0.0125   -0.0158   -0.0034   -0.0086
          13    0.0097   -0.0050   -0.0250   -0.0135   -0.0216    0.0087   -0.0016    0.0171
          14   -0.0038    0.0085    0.0059    0.0096   -0.0205   -0.0120   -0.0054    0.0041
          15    0.0029   -0.0198    0.0069   -0.0073    0.0200    0.0067    0.0064   -0.0127
          16    0.0095    0.0098    0.0311   -0.0223    0.0000    0.0023    0.0353   -0.0041
          17    0.0062   -0.0041    0.0075   -0.0136    0.0026    0.0035   -0.0278    0.0040
          18   -0.0166    0.0150   -0.0052    0.0120   -0.0108   -0.0103    0.0027    0.0021
          19   -0.0094   -0.0236    0.0182    0.0092   -0.0007    0.0059    0.0004    0.0101
          20   -0.0061   -0.0185    0.0229    0.0173    0.0000    0.0099    0.0014    0.0109
          21    0.0065    0.0067   -0.0116   -0.0112   -0.0072   -0.0019   -0.0020   -0.0099
          22    0.0126   -0.0150   -0.0233   -0.0048   -0.0107   -0.0028   -0.0268    0.0007
          23   -0.0196   -0.0025   -0.0026   -0.0234   -0.0066   -0.0132    0.0029   -0.0358
          24   -0.0213   -0.0231    0.0001   -0.0014   -0.0222    0.0106   -0.0072   -0.0010
          25    0.0210   -0.0090   -0.0273   -0.0165   -0.0037    0.0027   -0.0114    0.0048
          26    0.0255    0.0238    0.0008    0.0102    0.0076   -0.0241   -0.0096   -0.0059
          27    0.0273    0.0051   -0.0001    0.0027    0.0056    0.0142    0.0171    0.0289
          28   -0.0111    0.0182    0.0127   -0.0085   -0.0030   -0.0003    0.0050   -0.0075
          29    0.0108   -0.0227   -0.0180    0.0044    0.0037   -0.0007    0.0241   -0.0035
          30   -0.0148    0.0104   -0.0127    0.0221   -0.0139   -0.0158    0.0344   -0.0016
          31   -0.0068    0.0094    0.0025    0.0013   -0.0037   -0.0024   -0.0080    0.0029
          32    0.0143   -0.0255   -0.0159    0.0018    0.0064    0.0018    0.0140   -0.0004
          33   -0.0045    0.0196    0.0256   -0.0115   -0.0007    0.0019   -0.0209    0.0017
          34    0.0054    0.0259    0.0102    0.0026   -0.0054    0.0243    0.0544   -0.0061
          35   -0.0048    0.0277   -0.0207    0.0193   -0.0161    0.0305   -0.0319    0.0025
          36   -0.0055   -0.0136    0.0025   -0.0056    0.0354    0.0273   -0.0049   -0.0280
          37   -0.0041    0.0016    0.0035    0.0365    0.0366   -0.0236   -0.0172   -0.0230
          38    0.0085    0.0175   -0.0043   -0.0200    0.0332   -0.0312    0.0185    0.0173
          39   -0.0284   -0.0175   -0.0038    0.0007    0.0030    0.0061   -0.0020    0.0334
          40    0.0005    0.0130   -0.0005    0.0339   -0.0190    0.0154   -0.0121    0.0104
          41    0.0321    0.0173    0.0130   -0.0040   -0.0482   -0.0232    0.0145   -0.0141
          42    0.0583   -0.0208    0.0311    0.0152   -0.0406   -0.0440   -0.0079   -0.0221
          43    0.0043    0.0173    0.0028    0.0323    0.0035    0.0373   -0.0184   -0.0503
          44   -0.0570    0.0344   -0.0348   -0.0274    0.0372    0.0661    0.0211    0.0369
          45    0.0589   -0.0211    0.0319    0.0155   -0.0408   -0.0450   -0.0083   -0.0236
          46   -0.0148   -0.0067   -0.0032    0.0194    0.0328   -0.0230   -0.0134   -0.0055
          47    0.0240    0.0002    0.0262    0.0460   -0.0007    0.0145   -0.0122   -0.0149
          48    0.0420    0.0294   -0.0020    0.0218   -0.0089    0.0065   -0.0120   -0.0398
          49   -0.0560   -0.0167   -0.0197   -0.0241    0.0604   -0.0501    0.0073    0.0436
          50    0.0139   -0.0011    0.0252    0.0332    0.0082    0.0082   -0.0018    0.0059
          51   -0.0023    0.0154   -0.0252   -0.0208    0.0151   -0.0230   -0.0001   -0.0037
          52    0.0383    0.0156   -0.0389   -0.0078    0.0119    0.0210   -0.0140    0.0253
          53   -0.0308   -0.0076    0.0184    0.0053   -0.0497   -0.0181    0.0063   -0.0042
          54   -0.0053   -0.0614    0.0177   -0.0244   -0.0207   -0.0498    0.0122   -0.0102
          55   -0.0265   -0.0509   -0.0148   -0.0317   -0.0711   -0.0227    0.0000   -0.0003
          56   -0.0078   -0.0126    0.0230    0.0018   -0.0577   -0.0551    0.0160    0.0193
          57   -0.0074   -0.0212   -0.0013   -0.0080    0.0272    0.0248   -0.0079   -0.0297
          58    0.0056    0.0172    0.0151   -0.0033   -0.0039    0.0168    0.0413   -0.0103
          59    0.0144   -0.0126    0.0415   -0.0522    0.0054   -0.0247   -0.0485    0.0255
          60   -0.0073    0.0226    0.0366   -0.0265   -0.0199   -0.0363   -0.0379    0.0431
          61    0.0214    0.0059    0.0749   -0.0660   -0.0102   -0.0440    0.0212    0.0363
          62    0.0100   -0.0003    0.0306   -0.0377    0.0069    0.0025   -0.0677    0.0187
          63   -0.0197    0.0117   -0.0245    0.0324   -0.0150   -0.0107    0.0392   -0.0102
          64    0.0031   -0.0310    0.0327    0.0147   -0.0211    0.0262    0.0037    0.0173
          65    0.0077   -0.0250    0.0361    0.0233   -0.0186    0.0278    0.0035    0.0158
          66    0.0064    0.0103   -0.0188   -0.0112    0.0043   -0.0146   -0.0062   -0.0177
          67   -0.0236   -0.0382    0.0261    0.0054   -0.0162    0.0225    0.0050    0.0213
          68   -0.0125   -0.0313    0.0293    0.0173   -0.0110    0.0205    0.0024    0.0158
          69    0.0081    0.0123   -0.0142   -0.0117   -0.0029   -0.0056   -0.0018   -0.0109
          70    0.0019   -0.0226    0.0230    0.0130   -0.0061    0.0106    0.0006    0.0102
          71   -0.0226   -0.0135    0.0099    0.0118    0.0191   -0.0075   -0.0009    0.0073
          72    0.0013   -0.0184    0.0092   -0.0115   -0.0446    0.0344    0.0048    0.0054
          73    0.0307   -0.0080   -0.0290   -0.0311    0.0171   -0.0002   -0.0015   -0.0171
          74    0.0652    0.0457   -0.0027    0.0217    0.0050   -0.0271   -0.0091    0.0024
          75    0.0712    0.0289   -0.0038    0.0155    0.0038    0.0109    0.0173    0.0374
          76    0.0119   -0.0195   -0.0304   -0.0195   -0.0208    0.0037   -0.0245   -0.0056
          77   -0.0339   -0.0200   -0.0126   -0.0492   -0.0467   -0.0033   -0.0053   -0.0893
          78   -0.0451   -0.0390    0.0061    0.0015   -0.0580    0.0062   -0.0300   -0.0773
          79   -0.0429    0.0414   -0.0098    0.0172   -0.0248   -0.0217   -0.0469    0.0235
          80    0.0095   -0.0203   -0.0171    0.0038    0.0031   -0.0014    0.0108    0.0043
          81   -0.0201    0.0136   -0.0168    0.0267   -0.0175   -0.0191    0.0315   -0.0009
          82    0.0269   -0.0132    0.0332   -0.0339    0.0250    0.0276    0.0472   -0.0443
          83    0.0163   -0.0408   -0.0400    0.0219    0.0026   -0.0069    0.0858   -0.0163
          84    0.0014    0.0274    0.0530   -0.0366    0.0091    0.0161   -0.0700    0.0046
          85   -0.0366    0.0228   -0.0396    0.0482   -0.0342   -0.0359   -0.0783    0.0646
          86    0.0161   -0.0127    0.0119   -0.0227    0.0138    0.0142   -0.0750    0.0203
          87   -0.0002    0.0244    0.0441   -0.0288    0.0064    0.0118   -0.0548    0.0039


   Root No.      17        18        19        20        21        22        23        24

                17 A      18 A      19 A      20 A      21 A      22 A      23 A      24 A   

                 624.9     717.9     778.1     823.8     876.4     890.5     933.2     936.3
  
           1    0.0209    0.0070    0.0026   -0.0035   -0.0026   -0.0009    0.0075   -0.0027
           2   -0.0081   -0.0066   -0.0032   -0.0059   -0.0006    0.0020   -0.0029   -0.0018
           3    0.0065    0.0066    0.0112   -0.0016    0.0010   -0.0001   -0.0041   -0.0069
           4    0.0030   -0.0045   -0.0027    0.0007    0.0019   -0.0076    0.0027    0.0034
           5    0.0012   -0.0021   -0.0006   -0.0027   -0.0061    0.0014    0.0100   -0.0001
           6   -0.0176    0.0160    0.0136    0.0021   -0.0057    0.0010    0.0137    0.0108
           7    0.0128   -0.0010   -0.0032   -0.0086    0.0015   -0.0197    0.0054    0.0071
           8    0.0079   -0.0055    0.0050    0.0169    0.0142   -0.0033   -0.0094    0.0358
           9   -0.0022    0.0089    0.0173    0.0068   -0.0054   -0.0141   -0.0042   -0.0408
          10    0.0008   -0.0208   -0.0062    0.0229    0.0010    0.0081   -0.0065   -0.0023
          11   -0.0001   -0.0074    0.0015   -0.0235    0.0044    0.0006   -0.0034   -0.0016
          12    0.0025   -0.0097   -0.0008   -0.0113    0.0037    0.0032   -0.0040   -0.0018
          13   -0.0026   -0.0174   -0.0155   -0.0026    0.0027    0.0102    0.0039   -0.0264
          14   -0.0120    0.0143   -0.0070   -0.0026    0.0114    0.0277    0.0058   -0.0209
          15    0.0157    0.0086   -0.0076   -0.0014    0.0079    0.0118    0.0074    0.0191
          16    0.0129    0.0171    0.0098   -0.0046   -0.0227    0.0165    0.0011   -0.0044
          17   -0.0085   -0.0100   -0.0049   -0.0061   -0.0262    0.0063    0.0023   -0.0012
          18   -0.0082   -0.0051   -0.0031   -0.0018   -0.0092   -0.0021    0.0127    0.0032
          19   -0.0027   -0.0043   -0.0006    0.0070    0.0006    0.0067   -0.0069   -0.0041
          20   -0.0019   -0.0047    0.0009   -0.0045    0.0038    0.0023   -0.0091   -0.0020
          21    0.0016    0.0036   -0.0014   -0.0021    0.0002   -0.0022   -0.0030   -0.0003
          22   -0.0182    0.0305    0.0160    0.0043    0.0034    0.0034   -0.0069    0.0210
          23    0.0140    0.0035   -0.0254   -0.0015   -0.0117   -0.0207    0.0024   -0.0113
          24   -0.0036    0.0091   -0.0148    0.0027    0.0006   -0.0036   -0.0097    0.0115
          25   -0.0037    0.0029   -0.0037    0.0005   -0.0014   -0.0024   -0.0013    0.0017
          26   -0.0145    0.0373    0.0075    0.0035   -0.0042   -0.0094   -0.0020    0.0021
          27    0.0084   -0.0284   -0.0310   -0.0019   -0.0022   -0.0059   -0.0064   -0.0145
          28   -0.0423   -0.0076   -0.0033    0.0017   -0.0010    0.0025   -0.0173    0.0068
          29   -0.0004    0.0010    0.0006    0.0012    0.0016   -0.0004   -0.0010    0.0028
          30   -0.0048    0.0063    0.0020    0.0009    0.0016    0.0031   -0.0028    0.0004
          31    0.0014   -0.0005   -0.0006    0.0002    0.0010    0.0000   -0.0053    0.0023
          32    0.0138    0.0025    0.0015    0.0013    0.0049   -0.0027    0.0023    0.0009
          33   -0.0050    0.0001    0.0005    0.0006    0.0060    0.0025   -0.0183   -0.0058
          34    0.0392    0.0254    0.0273    0.0134    0.0299   -0.0235   -0.0067   -0.0103
          35   -0.0175   -0.0245   -0.0003   -0.0038   -0.0202   -0.0344   -0.0169   -0.0235
          36    0.0155    0.0205    0.0096   -0.0020    0.0184    0.0259    0.0062    0.0123
          37    0.0080   -0.0261   -0.0204   -0.0390    0.0057   -0.0031    0.0259    0.0165
          38    0.0017   -0.0222    0.0314   -0.0040   -0.0030    0.0198    0.0142   -0.0405
          39   -0.0169    0.0232   -0.0048    0.0003   -0.0062   -0.0072    0.0125    0.0337
          40   -0.0046    0.0051   -0.0052   -0.0141    0.0019   -0.0288    0.0281    0.0467
          41    0.0175   -0.0418   -0.0698   -0.0095    0.0310    0.0413    0.0048    0.1503
          42    0.0053   -0.0194   -0.0414   -0.0141    0.0079    0.0204    0.0071    0.0477
          43    0.0265   -0.0096   -0.0066   -0.0240    0.0174   -0.0436   -0.0210   -0.0097
          44   -0.0014    0.0294    0.0820    0.0467   -0.0002   -0.0486   -0.0268   -0.0684
          45    0.0053   -0.0185   -0.0436   -0.0170    0.0058    0.0217    0.0097    0.0414
          46    0.0018   -0.0222   -0.0048    0.0255    0.0079    0.0011   -0.0164    0.0043
          47    0.0068   -0.0141   -0.0053    0.0473    0.0044   -0.0029   -0.0132    0.0057
          48    0.0163   -0.0195   -0.0225    0.1594   -0.0195    0.0160    0.0054   -0.0042
          49   -0.0153   -0.0135    0.0135   -0.1009    0.0080    0.0090    0.0145    0.0009
          50    0.0013   -0.0129   -0.0041    0.0763   -0.0159    0.0137    0.0276    0.0035
          51   -0.0005   -0.0041    0.0057   -0.0959    0.0184   -0.0064   -0.0223   -0.0046
          52   -0.0116    0.0268   -0.0516   -0.0048    0.0267    0.0584    0.0210   -0.0432
          53   -0.0025   -0.0264    0.0234   -0.0021   -0.0085   -0.0110   -0.0087   -0.0101
          54    0.0112   -0.0332    0.0395    0.0131   -0.0360   -0.0820   -0.0155    0.0586
          55    0.0020   -0.0830    0.0514    0.0046   -0.0415   -0.0786   -0.0202    0.0075
          56   -0.0114   -0.0250    0.0147    0.0072   -0.0228   -0.0427   -0.0144   -0.0232
          57    0.0165    0.0119    0.0027   -0.0054    0.0153    0.0281    0.0125    0.0336
          58    0.0228    0.0203    0.0097   -0.0173   -0.0514    0.0252    0.0252   -0.0176
          59   -0.0001   -0.0106   -0.0033    0.0198    0.0490   -0.0175   -0.0319    0.0153
          60    0.0666    0.0096    0.0020    0.0233    0.1049   -0.0401    0.0152   -0.0044
          61    0.0640    0.0321    0.0157    0.0285    0.0885   -0.0152   -0.0162    0.0103
          62    0.0180   -0.0093   -0.0027    0.0049    0.0299   -0.0134   -0.0158   -0.0141
          63   -0.0312   -0.0049   -0.0047   -0.0105   -0.0568    0.0153    0.0291    0.0156
          64   -0.0064    0.0149    0.0115   -0.0549    0.0070   -0.0164    0.0059    0.0094
          65   -0.0046    0.0117    0.0090   -0.0299    0.0029   -0.0139    0.0119    0.0106
          66    0.0047   -0.0090   -0.0150    0.1127   -0.0216    0.0223    0.0165   -0.0071
          67   -0.0073    0.0139    0.0075   -0.0084   -0.0041   -0.0077    0.0209    0.0084
          68   -0.0040    0.0047   -0.0028    0.0923   -0.0231    0.0098    0.0435    0.0073
          69    0.0021    0.0009    0.0024   -0.0674    0.0168   -0.0098   -0.0322   -0.0040
          70   -0.0032    0.0000    0.0034   -0.0248    0.0062   -0.0015   -0.0097   -0.0012
          71    0.0006   -0.0222   -0.0086    0.0433    0.0002    0.0224   -0.0232   -0.0141
          72   -0.0057    0.0419    0.0108    0.0049   -0.0181   -0.0285    0.0649    0.0273
          73    0.0192   -0.0198    0.0115   -0.0023   -0.0172   -0.0342    0.0170    0.0307
          74   -0.0153   -0.0463    0.1474    0.0009   -0.0056    0.0035    0.0174    0.0520
          75    0.0079   -0.1205    0.1224   -0.0047   -0.0035    0.0081    0.0148    0.0414
          76   -0.0108    0.0102    0.0279    0.0003    0.0076    0.0188   -0.0017    0.0089
          77    0.0370   -0.0675    0.0700   -0.0134    0.0236    0.0622    0.0278   -0.0529
          78    0.0136   -0.0490    0.1154   -0.0045    0.0498    0.0919    0.0181   -0.0180
          79    0.0175   -0.0073   -0.0082    0.0096    0.0917   -0.0557    0.1331   -0.0467
          80    0.0259    0.0069    0.0034    0.0076    0.0529   -0.0205    0.0150   -0.0232
          81   -0.0121    0.0017   -0.0012   -0.0023   -0.0179    0.0060    0.0168    0.0092
          82   -0.1358   -0.0258   -0.0122    0.0073    0.0530   -0.0373    0.1019   -0.0297
          83   -0.0155    0.0117    0.0065    0.0095    0.0573   -0.0070   -0.0371   -0.0305
          84   -0.0108   -0.0136   -0.0064   -0.0048   -0.0269   -0.0025    0.0400    0.0138
          85    0.2069    0.0401    0.0188   -0.0121   -0.0508    0.0320   -0.0218   -0.0126
          86    0.0643   -0.0059   -0.0026   -0.0088   -0.0503   -0.0050    0.0849    0.0243
          87   -0.0070   -0.0091   -0.0039   -0.0028   -0.0144   -0.0022    0.0226    0.0072


   Root No.      25        26        27        28        29        30        31        32

                25 A      26 A      27 A      28 A      29 A      30 A      31 A      32 A   

                 941.9     951.7     977.3     995.6    1013.4    1025.9    1042.3    1060.0
  
           1    0.0047   -0.0001    0.0038   -0.0038   -0.0039   -0.0017   -0.0063    0.0037
           2   -0.0097    0.0055    0.0043    0.0004   -0.0092   -0.0010    0.0051    0.0112
           3   -0.0010    0.0034    0.0188   -0.0138   -0.0011    0.0011    0.0107   -0.0021
           4   -0.0032   -0.0087   -0.0024   -0.0140    0.0145   -0.0096   -0.0019   -0.0010
           5   -0.0105   -0.0048    0.0016   -0.0064   -0.0017    0.0006   -0.0047    0.0025
           6   -0.0148   -0.0066   -0.0022    0.0125   -0.0026   -0.0012    0.0112   -0.0003
           7   -0.0077   -0.0122   -0.0111    0.0135   -0.0044    0.0118   -0.0049   -0.0061
           8    0.0134    0.0030   -0.0129   -0.0066    0.0111   -0.0030    0.0044   -0.0107
           9    0.0051   -0.0090   -0.0020    0.0081    0.0063    0.0002   -0.0053   -0.0035
          10    0.0067    0.0055   -0.0009    0.0028    0.0114   -0.0130    0.0016    0.0072
          11    0.0025    0.0021    0.0020   -0.0032   -0.0085    0.0096   -0.0026   -0.0031
          12    0.0039    0.0028   -0.0002   -0.0028   -0.0037    0.0033    0.0010   -0.0011
          13   -0.0045   -0.0098    0.0169    0.0026    0.0099   -0.0026    0.0208   -0.0172
          14   -0.0006   -0.0081    0.0106    0.0075    0.0075    0.0011   -0.0134    0.0040
          15   -0.0020   -0.0028   -0.0134    0.0144   -0.0001   -0.0014   -0.0084    0.0042
          16   -0.0018    0.0201    0.0017   -0.0019   -0.0016   -0.0078    0.0069   -0.0026
          17   -0.0049    0.0143   -0.0151   -0.0009    0.0057   -0.0055   -0.0123   -0.0130
          18    0.0153   -0.0058    0.0029   -0.0005   -0.0027   -0.0026    0.0043    0.0064
          19    0.0082    0.0102    0.0042    0.0109   -0.0153    0.0126    0.0011   -0.0049
          20    0.0110    0.0078   -0.0004    0.0127    0.0015   -0.0034    0.0045   -0.0003
          21    0.0032    0.0027    0.0012    0.0063    0.0013   -0.0011   -0.0011    0.0009
          22    0.0093    0.0125   -0.0018   -0.0123   -0.0054    0.0030   -0.0174    0.0096
          23   -0.0118   -0.0038    0.0174    0.0172    0.0073   -0.0008   -0.0049    0.0003
          24    0.0069    0.0126    0.0180   -0.0106    0.0032    0.0007   -0.0142    0.0025
          25   -0.0011    0.0009   -0.0086    0.0004   -0.0031    0.0021   -0.0092    0.0065
          26    0.0067    0.0009   -0.0086   -0.0084   -0.0077   -0.0002    0.0292   -0.0114
          27    0.0049   -0.0017   -0.0204   -0.0155   -0.0056    0.0013   -0.0028    0.0062
          28   -0.0005   -0.0197    0.0028    0.0006    0.0051    0.0148    0.0135    0.0219
          29    0.0055   -0.0086    0.0037    0.0003    0.0009    0.0047    0.0037    0.0060
          30   -0.0012    0.0006   -0.0016    0.0013    0.0029    0.0040   -0.0062   -0.0036
          31   -0.0007   -0.0095    0.0033    0.0021   -0.0184   -0.0262   -0.0146   -0.0172
          32    0.0051   -0.0067    0.0061   -0.0004   -0.0074   -0.0080   -0.0001   -0.0006
          33   -0.0256    0.0118   -0.0087   -0.0012    0.0017   -0.0023   -0.0022   -0.0038
          34    0.0296   -0.0156    0.0115   -0.0294    0.0072    0.0255   -0.0513   -0.0175
          35   -0.0041    0.0030   -0.0152   -0.0105   -0.0280   -0.0028    0.0190    0.0413
          36   -0.0039    0.0036    0.0322   -0.0061    0.0145    0.0042   -0.0024   -0.0271
          37   -0.0394   -0.0308    0.0172   -0.0860   -0.0006    0.0142    0.0054   -0.0215
          38   -0.0013   -0.0178   -0.0349   -0.0790   -0.0111    0.0021   -0.0604    0.0335
          39   -0.0215   -0.0009    0.0187    0.0428    0.0015   -0.0006    0.0414   -0.0183
          40   -0.0413   -0.0332   -0.0758    0.1396   -0.0266    0.0305    0.0054    0.0039
          41   -0.0043    0.0256   -0.0026   -0.0260   -0.0009   -0.0045    0.0228   -0.0076
          42   -0.0091    0.0080    0.0072   -0.0071   -0.0021   -0.0013    0.0098   -0.0018
          43    0.0026   -0.0119    0.0239   -0.0387   -0.0216    0.0598   -0.0079   -0.0412
          44    0.0357   -0.0179   -0.0317    0.0098    0.0250   -0.0022   -0.0152   -0.0161
          45   -0.0129    0.0074    0.0133   -0.0051   -0.0049   -0.0001    0.0105    0.0004
          46    0.0187    0.0034   -0.0149    0.0101    0.0643   -0.0642    0.0049    0.0292
          47    0.0156    0.0010   -0.0148    0.0123    0.0603   -0.0587    0.0036    0.0259
          48   -0.0045    0.0046    0.0028    0.0099   -0.0003   -0.0039    0.0052    0.0017
          49   -0.0228   -0.0096    0.0095   -0.0403   -0.0511    0.0536   -0.0024   -0.0172
          50   -0.0335   -0.0148    0.0049   -0.0233   -0.0304    0.0302    0.0009   -0.0072
          51    0.0244    0.0119   -0.0009    0.0052    0.0036   -0.0022   -0.0021   -0.0016
          52   -0.0069   -0.0335    0.0030    0.0372    0.0264   -0.0126    0.0573   -0.0570
          53    0.0000    0.0128    0.0298   -0.0242   -0.0063    0.0120   -0.0550    0.0460
          54    0.0093    0.0165   -0.0645   -0.0038   -0.0221   -0.0104    0.0551   -0.0283
          55   -0.0100    0.0210    0.0442   -0.0283   -0.0075   -0.0014    0.0911   -0.0428
          56    0.0160    0.0021   -0.0386   -0.0226   -0.0116   -0.0015   -0.0245    0.0192
          57   -0.0150    0.0016    0.0306    0.0234    0.0064    0.0009    0.0238   -0.0144
          58   -0.0020    0.0466    0.0102   -0.0022   -0.0450   -0.0597    0.0438    0.0570
          59   -0.0047   -0.0346   -0.0143    0.0000    0.0525    0.0607   -0.0496   -0.0714
          60    0.0152   -0.0438    0.0483    0.0028   -0.0589   -0.0324    0.0612    0.1071
          61    0.0152   -0.0406    0.0280    0.0068    0.0148    0.0424   -0.0033   -0.0220
          62   -0.0314    0.0080   -0.0010   -0.0088   -0.0191   -0.0233    0.0128    0.0343
          63    0.0408   -0.0021   -0.0091    0.0070    0.0207    0.0152   -0.0192   -0.0370
          64   -0.0072   -0.0176   -0.0125   -0.0136    0.0408   -0.0359    0.0042    0.0117
          65   -0.0139   -0.0214   -0.0130   -0.0185    0.0394   -0.0346    0.0045    0.0114
          66   -0.0188    0.0054    0.0174   -0.0086   -0.0617    0.0574   -0.0110   -0.0164
          67   -0.0246   -0.0230   -0.0065   -0.0294    0.0154   -0.0113   -0.0012    0.0049
          68   -0.0499   -0.0292    0.0014   -0.0492   -0.0244    0.0258   -0.0061   -0.0062
          69    0.0368    0.0208   -0.0018    0.0399    0.0238   -0.0245    0.0056    0.0065
          70    0.0113    0.0060   -0.0013    0.0101    0.0063   -0.0070    0.0029    0.0015
          71    0.0279    0.0341    0.0131    0.0378   -0.0456    0.0365    0.0044   -0.0143
          72   -0.0768   -0.0700   -0.0170   -0.0819    0.0510   -0.0362   -0.0096    0.0168
          73   -0.0340   -0.0103   -0.0338    0.0700   -0.0070   -0.0003   -0.0272    0.0303
          74   -0.0311    0.0136    0.0896    0.0406    0.0223   -0.0020   -0.0161   -0.0052
          75   -0.0367    0.0122    0.0863    0.0384    0.0274   -0.0011   -0.0526    0.0128
          76    0.0059    0.0069   -0.0290    0.0023   -0.0192    0.0123   -0.0486    0.0403
          77   -0.0063   -0.0392   -0.0893    0.0257   -0.0259    0.0100   -0.0106    0.0312
          78    0.0280   -0.0310   -0.0836   -0.0459   -0.0106   -0.0104    0.0768   -0.0434
[...]
 T-DIPOLE    0.1017        C  2 --  C  8          +10.5% ( 49.3%)    98.6%
 TRAVEL      0.0705        C  1 --  C  5           +8.5% ( 44.5%)    44.8%
 RED. MASS   1.1898        C  2 --  C  4           +6.8% ( 39.7%)    27.0%
 EFF. MASS   9.4168

 VIBRATION   62   62A       ATOM PAIR        ENERGY CONTRIBUTION    RADIAL
 FREQ.      1860.70        C 10 --  C 11          +45.3% ( 99.3%)    98.9%
 T-DIPOLE    0.2290        C  6 --  C 10          +16.7% ( 60.3%)    54.5%
 TRAVEL      0.0554        C 10 --  H 27          +15.4% ( 58.0%)     3.9%
 RED. MASS   5.2982        C 11 --  H 28          +11.0% ( 48.9%)    10.9%
 EFF. MASS  11.7918        C 11 --  H 29          +10.8% ( 48.4%)    12.8%

 VIBRATION   63   63A       ATOM PAIR        ENERGY CONTRIBUTION    RADIAL
 FREQ.      1883.11        C  8 --  C  9          +44.3% ( 98.2%)   100.0%
 T-DIPOLE    0.1664        C  5 --  C  9          +14.3% ( 55.7%)    53.1%
 TRAVEL      0.0549        C  2 --  C  8          +14.1% ( 55.5%)    50.7%
 RED. MASS   5.4288        C  9 --  H 25          +13.1% ( 53.4%)     4.5%
 EFF. MASS  11.8810        C  8 --  H 26          +13.1% ( 53.4%)     4.7%

 VIBRATION   64   64A       ATOM PAIR        ENERGY CONTRIBUTION    RADIAL
 FREQ.      2849.40        C  2 --  H 13          +96.3% ( 99.7%)   100.0%
 T-DIPOLE    0.0524        C  2 --  C  3           +1.0% ( 10.2%)     8.8%
 TRAVEL      0.1283        C  2 --  C  4           +1.0% ( 10.1%)     8.9%
 RED. MASS   0.9175        C  2 --  C  8           +1.0% ( 10.1%)     7.1%
 EFF. MASS   1.4368

 VIBRATION   65   65A       ATOM PAIR        ENERGY CONTRIBUTION    RADIAL
 FREQ.      2869.79        C  1 --  H 12          +95.3% ( 99.3%)   100.0%
 T-DIPOLE    0.0376        C  1 --  C  5           +1.0% ( 10.3%)     8.3%
 TRAVEL      0.1276        C  1 --  C  6           +1.0% ( 10.3%)     8.9%
 RED. MASS   0.9024        C  1 --  C  3           +1.0% ( 10.3%)     8.6%
 EFF. MASS   1.4435

 VIBRATION   66   66A       ATOM PAIR        ENERGY CONTRIBUTION    RADIAL
 FREQ.      2940.24        C  6 --  H 20          +45.4% ( 69.9%)    96.8%
 T-DIPOLE    0.0371        C  6 --  H 21          +40.3% ( 65.8%)    96.2%
 TRAVEL      0.1219        C  5 --  H 19           +6.9% ( 27.2%)    97.6%
 RED. MASS   0.4068        C  5 --  H 18           +4.4% ( 21.8%)    95.1%
 EFF. MASS   1.5421

 VIBRATION   67   67A       ATOM PAIR        ENERGY CONTRIBUTION    RADIAL
 FREQ.      2941.86        C  5 --  H 19          +51.1% ( 74.2%)    97.5%
 T-DIPOLE    0.0239        C  5 --  H 18          +34.0% ( 60.5%)    95.2%
 TRAVEL      0.1222        C  6 --  H 20           +6.0% ( 25.4%)    96.7%
 RED. MASS   0.4146        C  6 --  H 21           +5.5% ( 24.3%)    96.3%
 EFF. MASS   1.5350

 VIBRATION   68   68A       ATOM PAIR        ENERGY CONTRIBUTION    RADIAL
 FREQ.      2949.04        C  4 --  H 16          +40.8% ( 66.3%)    97.0%
 T-DIPOLE    0.0296        C  4 --  H 17          +33.8% ( 60.4%)    96.0%
 TRAVEL      0.1217        C  3 --  H 15          +11.1% ( 34.6%)    96.5%
 RED. MASS   0.3309        C  3 --  H 14          +11.1% ( 34.6%)    96.6%
 EFF. MASS   1.5446

 VIBRATION   69   69A       ATOM PAIR        ENERGY CONTRIBUTION    RADIAL
 FREQ.      2950.17        C  3 --  H 15          +37.0% ( 63.1%)    96.5%
 T-DIPOLE    0.0409        C  3 --  H 14          +36.9% ( 63.1%)    96.6%
 TRAVEL      0.1217        C  4 --  H 16          +12.9% ( 37.3%)    97.2%
 RED. MASS   0.3257        C  4 --  H 17           +9.9% ( 32.6%)    95.6%
 EFF. MASS   1.5432

 VIBRATION   70   70A       ATOM PAIR        ENERGY CONTRIBUTION    RADIAL
 FREQ.      3016.43        C  6 --  H 21          +50.5% ( 70.0%)    98.0%
 T-DIPOLE    0.0513        C  6 --  H 20          +45.0% ( 66.1%)    97.3%
 TRAVEL      0.1324        C  5 --  H 18           +1.2% ( 10.8%)    98.6%
 RED. MASS   0.4545        C  5 --  H 19           +0.8% (  8.8%)    96.0%
 EFF. MASS   1.2758

 VIBRATION   71   71A       ATOM PAIR        ENERGY CONTRIBUTION    RADIAL
 FREQ.      3020.71        C  5 --  H 18          +57.9% ( 75.1%)    98.7%
 T-DIPOLE    0.0462        C  5 --  H 19          +37.0% ( 60.0%)    96.0%
 TRAVEL      0.1319        C  9 --  H 25           +1.8% ( 13.1%)   100.0%
 RED. MASS   0.4674        C  6 --  H 21           +1.1% ( 10.3%)    98.1%
 EFF. MASS   1.2832

 VIBRATION   72   72A       ATOM PAIR        ENERGY CONTRIBUTION    RADIAL
 FREQ.      3025.20        C  3 --  H 14          +46.7% ( 67.4%)    97.7%
 T-DIPOLE    0.0584        C  3 --  H 15          +46.6% ( 67.3%)    97.6%
 TRAVEL      0.1323        C  4 --  H 17           +2.5% ( 15.7%)    98.2%
 RED. MASS   0.4334        C  4 --  H 16           +2.0% ( 13.8%)    96.9%
 EFF. MASS   1.2727

 VIBRATION   73   73A       ATOM PAIR        ENERGY CONTRIBUTION    RADIAL
 FREQ.      3030.42        C  4 --  H 17          +51.6% ( 70.8%)    98.3%
 T-DIPOLE    0.0470        C  4 --  H 16          +41.0% ( 63.1%)    97.1%
 TRAVEL      0.1320        C  3 --  H 15           +2.4% ( 15.3%)    98.1%
 RED. MASS   0.4323        C  3 --  H 14           +2.0% ( 14.1%)    97.2%
 EFF. MASS   1.2767

 VIBRATION   74   74A       ATOM PAIR        ENERGY CONTRIBUTION    RADIAL
 FREQ.      3038.70        C  8 --  H 26          +65.4% ( 82.0%)   100.0%
 T-DIPOLE    0.2815        C  9 --  H 25          +30.6% ( 56.1%)   100.0%
 TRAVEL      0.1234        C  8 --  C  9           +1.1% ( 10.6%)     2.1%
 RED. MASS   0.5083        C  2 --  C  8           +0.9% (  9.5%)    17.7%
 EFF. MASS   1.4574

 VIBRATION   75   75A       ATOM PAIR        ENERGY CONTRIBUTION    RADIAL
 FREQ.      3039.60        C 10 --  H 27          +95.7% ( 99.2%)   100.0%
 T-DIPOLE    0.2305        C 10 --  C 11           +1.4% ( 12.0%)    30.6%
 TRAVEL      0.1216        C  6 --  C 10           +1.3% ( 11.6%)    14.0%
 RED. MASS   0.9007        C 11 --  H 29           +0.9% (  9.4%)    95.3%
 EFF. MASS   1.4995

 VIBRATION   76   76A       ATOM PAIR        ENERGY CONTRIBUTION    RADIAL
 FREQ.      3060.20        C  9 --  H 25          +64.6% ( 81.5%)    99.9%
 T-DIPOLE    0.2717        C  8 --  H 26          +30.8% ( 56.3%)    99.8%
 TRAVEL      0.1181        C  8 --  C  9           +2.0% ( 14.2%)    94.8%
 RED. MASS   0.5123        C  5 --  C  9           +1.0% ( 10.3%)    16.9%
 EFF. MASS   1.5801

 VIBRATION   77   77A       ATOM PAIR        ENERGY CONTRIBUTION    RADIAL
 FREQ.      3074.12        C  7 --  H 22          +61.6% ( 80.9%)    98.5%
 T-DIPOLE    0.0115        C  7 --  H 23          +33.2% ( 59.5%)    93.9%
 TRAVEL      0.1209        C  7 --  H 24           +3.8% ( 20.0%)    45.2%
 RED. MASS   0.5184        C  4 --  C  7           +1.0% ( 10.2%)     0.0%
 EFF. MASS   1.5006

 VIBRATION   78   78A       ATOM PAIR        ENERGY CONTRIBUTION    RADIAL
 FREQ.      3082.42        C  7 --  H 24          +57.8% ( 78.4%)    98.4%
 T-DIPOLE    0.0039        C  7 --  H 23          +33.3% ( 59.5%)    93.6%
 TRAVEL      0.1207        C  7 --  H 22           +7.3% ( 27.8%)    64.9%
 RED. MASS   0.4790        C  4 --  C  7           +1.0% ( 10.3%)     0.0%
 EFF. MASS   1.5022

 VIBRATION   79   79A       ATOM PAIR        ENERGY CONTRIBUTION    RADIAL
 FREQ.      3135.64        C 11 --  H 28          +91.3% ( 97.3%)    99.9%
 T-DIPOLE    0.1939        C 11 --  H 29           +7.3% ( 27.5%)    73.1%
 TRAVEL      0.1182        C 10 --  C 11           +1.3% ( 11.7%)    21.3%
 RED. MASS   0.8466
 EFF. MASS   1.5402

 VIBRATION   80   80A       ATOM PAIR        ENERGY CONTRIBUTION    RADIAL
 FREQ.      3147.74        C 11 --  H 29          +91.4% ( 96.2%)    99.6%
 T-DIPOLE    0.2578        C 11 --  H 28           +6.3% ( 25.2%)    44.6%
 TRAVEL      0.1210        C 10 --  C 11           +1.6% ( 12.7%)    74.1%
 RED. MASS   0.8115        C 10 --  H 27           +0.7% (  8.6%)    94.5%
 EFF. MASS   1.4630

 VIBRATION   81   81A       ATOM PAIR        ENERGY CONTRIBUTION    RADIAL
 FREQ.      3178.80        C  7 --  H 24          +37.8% ( 59.2%)    97.8%
 T-DIPOLE    0.0165        C  7 --  H 23          +32.4% ( 54.7%)    96.9%
 TRAVEL      0.1366        C  7 --  H 22          +29.5% ( 52.3%)    96.4%
 RED. MASS   0.3298        C  4 --  C  7           +0.3% (  5.1%)    99.1%
 EFF. MASS   1.1375

 SYMMETRY NUMBER FOR POINT-GROUP C1  =  1


          SYSTEM IS A GROUND STATE


    NULL



          MOLECULE IS NOT LINEAR

          THERE ARE 81 GENUINE VIBRATIONS IN THIS SYSTEM
          THIS THERMODYNAMICS CALCULATION IS LIMITED TO
          MOLECULES WHICH HAVE NO INTERNAL ROTATIONS




                    CALCULATED THERMODYNAMIC PROPERTIES
                                          *
   TEMP. (K)   PARTITION FUNCTION   H.O.F.    ENTHALPY  HEAT CAPACITY ENTROPY
                                   KCAL/MOL   CAL/MOLE    CAL/K/MOL  CAL/K/MOL


 298.00  VIB.     0.3969D+04                  5653.2871    39.6017    35.4375
         ROT.     0.1213D+07                   888.2813     2.9808    30.8195
         INT.     0.4817D+10                  6541.5684    42.5825    66.2570
         TRA.     0.1781D+28                  1480.4688     4.9680    40.9296
         TOT.                       -0.748    8022.0373    47.5505   107.1866

 200.00  VIB.     0.1771D+03                  2513.6580    24.9882    22.8552
         ROT.     0.6672D+06                   596.1620     2.9808    29.6308
         INT.     0.1181D+09                  3109.8199    27.9690    52.4860
         TRA.     0.9791D+27                   993.6033     4.9680    38.9485
         TOT.                       -4.667    4103.4232    32.9370    91.4345

 210.00  VIB.     0.2429D+03                  2770.1707    26.3212    24.1065
         ROT.     0.7178D+06                   625.9700     2.9808    29.7762
         INT.     0.1744D+09                  3396.1408    29.3020    53.8827
         TRA.     0.1053D+28                  1043.2834     4.9680    39.1909
         TOT.                       -4.331    4439.4242    34.2700    93.0736

 220.00  VIB.     0.3332D+03                  3040.2189    27.6954    25.3625
         ROT.     0.7697D+06                   655.7781     2.9808    29.9149
         INT.     0.2565D+09                  3695.9970    30.6762    55.2774
         TRA.     0.1130D+28                  1092.9636     4.9680    39.4220
         TOT.                       -3.981    4788.9606    35.6442    94.6994

 230.00  VIB.     0.4571D+03                  3324.2142    29.1104    26.6246
         ROT.     0.8228D+06                   685.5862     2.9808    30.0474
         INT.     0.3761D+09                  4009.8004    32.0912    56.6721
         TRA.     0.1207D+28                  1142.6437     4.9680    39.6428
         TOT.                       -3.618    5152.4442    37.0592    96.3149

 240.00  VIB.     0.6272D+03                  3622.5584    30.5648    27.8942
         ROT.     0.8770D+06                   715.3943     2.9808    30.1743
         INT.     0.5501D+09                  4337.9527    33.5456    58.0684
         TRA.     0.1287D+28                  1192.3239     4.9680    39.8543
         TOT.                       -3.240    5530.2766    38.5136    97.9227

 250.00  VIB.     0.8609D+03                  3935.6319    32.0558    29.1720
         ROT.     0.9324D+06                   745.2024     2.9808    30.2960
         INT.     0.8027D+09                  4680.8344    35.0366    59.4679
         TRA.     0.1368D+28                  1242.0041     4.9680    40.0571
         TOT.                       -2.848    5922.8384    40.0046    99.5250

 260.00  VIB.     0.1182D+04                  4263.7851    33.5801    30.4588
         ROT.     0.9889D+06                   775.0105     2.9808    30.4129
         INT.     0.1169D+10                  5038.7956    36.5609    60.8717
         TRA.     0.1451D+28                  1291.6842     4.9680    40.2519
         TOT.                       -2.440    6330.4799    41.5289   101.1236

 270.00  VIB.     0.1624D+04                  4607.3311    35.1337    31.7552
         ROT.     0.1046D+07                   804.8186     2.9808    30.5254
         INT.     0.1700D+10                  5412.1498    38.1145    62.2806
         TRA.     0.1536D+28                  1341.3644     4.9680    40.4394
         TOT.                       -2.017    6753.5141    43.0825   102.7200

 280.00  VIB.     0.2233D+04                  4966.5413    36.7122    33.0614
         ROT.     0.1105D+07                   834.6267     2.9808    30.6338
         INT.     0.2468D+10                  5801.1680    39.6930    63.6952
         TRA.     0.1622D+28                  1391.0445     4.9680    40.6201
         TOT.                       -1.578    7192.2126    44.6610   104.3152

 290.00  VIB.     0.3073D+04                  5341.6422    38.3110    34.3775
         ROT.     0.1165D+07                   864.4348     2.9808    30.7384
         INT.     0.3580D+10                  6206.0771    41.2918    65.1159
         TRA.     0.1710D+28                  1440.7247     4.9680    40.7944
         TOT.                       -1.124    7646.8018    46.2599   105.9103

 300.00  VIB.     0.4232D+04                  5732.8143    39.9256    35.7035
         ROT.     0.1226D+07                   894.2429     2.9808    30.8394
         INT.     0.5187D+10                  6627.0573    42.9064    66.5429
         TRA.     0.1799D+28                  1490.4049     4.9680    40.9628
         TOT.                       -0.653    8117.4621    47.8745   107.5058

 310.00  VIB.     0.5834D+04                  6140.1920    41.5514    37.0391
         ROT.     0.1287D+07                   924.0510     2.9808    30.9372
         INT.     0.7511D+10                  7064.2430    44.5322    67.9763
         TRA.     0.1889D+28                  1540.0850     4.9680    41.1257
         TOT.                       -0.166    8604.3281    49.5002   109.1020

 320.00  VIB.     0.8051D+04                  6563.8646    43.1839    38.3841
         ROT.     0.1350D+07                   953.8591     2.9808    31.0318
         INT.     0.1087D+11                  7517.7238    46.1647    69.4159
         TRA.     0.1982D+28                  1589.7652     4.9680    41.2835
         TOT.                        0.337    9107.4890    51.1327   110.6994

 330.00  VIB.     0.1112D+05                  7003.8785    44.8190    39.7380
         ROT.     0.1414D+07                   983.6672     2.9808    31.1235
         INT.     0.1573D+11                  7987.5458    47.7998    70.8615
         TRA.     0.2075D+28                  1639.4454     4.9680    41.4364
         TOT.                        0.857    9626.9911    52.7678   112.2978

 340.00  VIB.     0.1538D+05                  7460.2396    46.4527    41.1002
         ROT.     0.1479D+07                  1013.4753     2.9808    31.2125
         INT.     0.2274D+11                  8473.7149    49.4335    72.3127
         TRA.     0.2170D+28                  1689.1255     4.9680    41.5847
         TOT.                        1.392   10162.8404    54.4015   113.8974

 350.00  VIB.     0.2129D+05                  7932.9159    48.0815    42.4703
         ROT.     0.1544D+07                  1043.2834     2.9808    31.2989
         INT.     0.3289D+11                  8976.1993    51.0623    73.7692
         TRA.     0.2267D+28                  1738.8057     4.9680    41.7287
         TOT.                        1.945   10715.0050    56.0303   115.4979

 360.00  VIB.     0.2951D+05                  8421.8416    49.7020    43.8475
         ROT.     0.1611D+07                  1073.0915     2.9808    31.3829
         INT.     0.4755D+11                  9494.9332    52.6829    75.2304
         TRA.     0.2364D+28                  1788.4859     4.9680    41.8686
         TOT.                        2.513   11283.4190    57.6509   117.0990

 370.00  VIB.     0.4095D+05                  8926.9198    51.3115    45.2313
         ROT.     0.1679D+07                  1102.8996     2.9808    31.4646
         INT.     0.6875D+11                 10029.8194    54.2923    76.6958
         TRA.     0.2464D+28                  1838.1660     4.9680    42.0047
         TOT.                        3.098   11867.9854    59.2603   118.7006

 380.00  VIB.     0.5689D+05                  9448.0258    52.9072    46.6209
         ROT.     0.1747D+07                  1132.7077     2.9808    31.5441
         INT.     0.9940D+11                 10580.7335    55.8880    78.1649
         TRA.     0.2564D+28                  1887.8462     4.9680    42.1372
         TOT.                        3.698   12468.5797    60.8561   120.3022

 390.00  VIB.     0.7912D+05                  9985.0112    54.4870    48.0156
         ROT.     0.1817D+07                  1162.5158     2.9808    31.6215
         INT.     0.1437D+12                 11147.5270    57.4678    79.6371
         TRA.     0.2666D+28                  1937.5263     4.9680    42.2663
         TOT.                        4.315   13085.0533    62.4358   121.9034

 400.00  VIB.     0.1101D+06                 10537.7063    56.0489    49.4148
         ROT.     0.1887D+07                  1192.3239     2.9808    31.6969
         INT.     0.2078D+12                 11730.0302    59.0297    81.1118
         TRA.     0.2769D+28                  1987.2065     4.9680    42.3921
         TOT.                        4.947   13717.2367    63.9977   123.5039

   *: NOTE: HEATS OF FORMATION ARE RELATIVE TO THE
            ELEMENTS IN THEIR STANDARD STATE AT 298K
              (=  Standard Enthalpy of Formation).

            Hvib:  Zero-point energy is not included.
                   frequencies of less than zero cm-1 are not included.
            Hrot = (3/2)RT
            Htra = (3/2)RT + pV = (5/2)RT

            Heat capacity is Cp, not Cv

           For more information, see: HTTP://OpenMOPAC.net/Manual/thermochemistry.html


           FORCE CONSTANT IN CARTESIAN COORDINATES (Millidynes/A)

    ATOM   CHEMICAL       X               Y               Z
   NUMBER   SYMBOL  FORCE CONSTANT  FORCE CONSTANT  FORCE CONSTANT

      1       C        8.381554        8.167341        8.302999
      2       C        8.356067        8.546553        8.363322
      3       C        8.060465        8.461581        8.371717
      4       C        8.098248        8.248034        8.400628
      5       C        9.198055        8.268721        7.993157
      6       C        7.949296        8.396613        8.990796
      7       C        8.342431        8.278245        8.216426
      8       C       13.972972        6.802221        6.507598
      9       C       13.590144        6.905089        6.808996
     10       C        3.363871       14.532243        9.208186
     11       C        2.833093       14.480768        9.188957
     12       H        0.751486        2.177261        3.115469
     13       H        0.745380        1.485839        3.657598
     14       H        0.716801        2.142438        3.501911
     15       H        0.764161        2.161163        3.476836
     16       H        3.247204        2.301092        0.851677
     17       H        0.813112        2.195212        3.405959
     18       H        2.665193        2.919220        0.763292
     19       H        0.918283        2.056363        3.290086
     20       H        3.414597        2.128972        0.731086
     21       H        0.713076        2.774079        2.904840
     22       H        3.209512        2.636854        0.890245
     23       H        0.776514        2.271018        3.732227
     24       H        3.984016        1.941480        0.868698
     25       H        0.765750        2.960447        2.522466
     26       H        3.931239        1.484211        0.816425
     27       H        0.499840        2.249577        3.468761
     28       H        0.495031        2.525034        3.444800
     29       H        0.413807        1.468139        4.596172



 TOTAL CPU TIME:             6.36 SECONDS

 == MOPAC DONE ==
