 *******************************************************************************
 ** Site#: 14399           For non-commercial use only        Version 13.159M **
 *******************************************************************************
 ** Cite this work as: MOPAC2012, James J. P. Stewart, Stewart Computational  **
 ** Chemistry, Version 13.159M web: HTTP://OpenMOPAC.net  Days remaining:   6 **
 *******************************************************************************
 **                                                                           **
 **                                MOPAC2012                                  **
 **                                                                           **
 *******************************************************************************

                            PM3 CALCULATION RESULTS


 *******************************************************************************
 *  CALCULATION DONE:                                Mon Jun  2 14:11:46 2014  *
 *  PM3      - The PM3 Hamiltonian to be used
 *  PRECISE  - CRITERIA TO BE INCREASED BY 100 TIMES
 *  NOSYM    - POINT-GROUP SYMMETRY SET TO C1
 *  T=       - A TIME OF 172800.0 SECONDS REQUESTED
 *  DUMP=N   - RESTART FILE WRITTEN EVERY  7200.000 SECONDS
 *******************************************************************************
pm3  precise nosym
 InChI=1S/C8H14O/c1-2-7-5-3-4-6-8(7)9/h3,5,7-9H,2,4,6H2,1H3

   ATOM   CHEMICAL          X               Y               Z
  NUMBER   SYMBOL      (ANGSTROMS)     (ANGSTROMS)     (ANGSTROMS)
 
     1       C         -0.43150000  *   0.06400000  *  -0.33800000  *
     2       C          0.61670000  *   1.08280000  *   0.16940000  *
     3       C          2.04170000  *   0.63690000  *  -0.17660000  *
     4       C         -1.81300000  *   0.35350000  *   0.28310000  *
     5       C          2.34940000  *  -0.73690000  *   0.42610000  *
     6       C         -2.98560000  *  -0.33980000  *  -0.40860000  *
     7       C         -0.00770000  *  -1.37540000  *  -0.11360000  *
     8       C          1.23980000  *  -1.73290000  *   0.22710000  *
     9       O          0.36070000  *   2.37950000  *  -0.41430000  *
    10       H         -0.51400000  *   0.18940000  *  -1.44380000  *
    11       H          0.54350000  *   1.15660000  *   1.28310000  *
    12       H         -2.02720000  *   1.44680000  *   0.23210000  *
    13       H         -1.81460000  *   0.08350000  *   1.36520000  *
    14       H          2.15620000  *   0.59040000  *  -1.28540000  *
    15       H          2.78410000  *   1.37860000  *   0.19930000  *
    16       H          2.54090000  *  -0.64540000  *   1.51990000  *
    17       H          3.27990000  *  -1.13160000  *  -0.04240000  *
    18       H         -2.94550000  *  -1.44460000  *  -0.28630000  *
    19       H         -3.94420000  *   0.00330000  *   0.04300000  *
    20       H         -3.01080000  *  -0.09220000  *  -1.49420000  *
    21       H          1.46310000  *  -2.78760000  *   0.38210000  *
    22       H         -0.72720000  *  -2.17380000  *  -0.28410000  *
    23       H          0.84520000  *   3.09480000  *   0.15710000  *
 


          CARTESIAN COORDINATES 

    NO.       ATOM         X         Y         Z

     1         C       -0.4315    0.0640   -0.3380
     2         C        0.6167    1.0828    0.1694
     3         C        2.0417    0.6369   -0.1766
     4         C       -1.8130    0.3535    0.2831
     5         C        2.3494   -0.7369    0.4261
     6         C       -2.9856   -0.3398   -0.4086
     7         C       -0.0077   -1.3754   -0.1136
     8         C        1.2398   -1.7329    0.2271
     9         O        0.3607    2.3795   -0.4143
    10         H       -0.5140    0.1894   -1.4438
    11         H        0.5435    1.1566    1.2831
    12         H       -2.0272    1.4468    0.2321
    13         H       -1.8146    0.0835    1.3652
    14         H        2.1562    0.5904   -1.2854
    15         H        2.7841    1.3786    0.1993
    16         H        2.5409   -0.6454    1.5199
    17         H        3.2799   -1.1316   -0.0424
    18         H       -2.9455   -1.4446   -0.2863
    19         H       -3.9442    0.0033    0.0430
    20         H       -3.0108   -0.0922   -1.4942
    21         H        1.4631   -2.7876    0.3821
    22         H       -0.7272   -2.1738   -0.2841
    23         H        0.8452    3.0948    0.1571

  H: (PM3): J. J. P. STEWART, J. COMP. CHEM. 10, 209 (1989).
  C: (PM3): J. J. P. STEWART, J. COMP. CHEM. 10, 209 (1989).
  O: (PM3): J. J. P. STEWART, J. COMP. CHEM. 10, 209 (1989).

           Empirical Formula: C8 H14 O  =    23 atoms



      MOLECULAR POINT GROUP   :   C1  


      RHF CALCULATION, NO. OF DOUBLY OCCUPIED LEVELS =   26

      Geometry optimization using EF

          DIAGONAL MATRIX USED AS START HESSIAN

 CYCLE:     1 TIME:   0.011 TIME LEFT:  2.00D  GRAD.:   122.658 HEAT:-46.60649
 CYCLE:     2 TIME:   0.015 TIME LEFT:  2.00D  GRAD.:    79.060 HEAT:-50.63062
 CYCLE:     3 TIME:   0.009 TIME LEFT:  2.00D  GRAD.:    71.178 HEAT:-51.32432
 CYCLE:     4 TIME:   0.014 TIME LEFT:  2.00D  GRAD.:    41.303 HEAT:-52.67841
 CYCLE:     5 TIME:   0.013 TIME LEFT:  2.00D  GRAD.:    24.718 HEAT:-53.16342
 CYCLE:     6 TIME:   0.007 TIME LEFT:  2.00D  GRAD.:    37.548 HEAT:-53.17875
 CYCLE:     7 TIME:   0.013 TIME LEFT:  2.00D  GRAD.:    20.935 HEAT:-53.57148
 CYCLE:     8 TIME:   0.013 TIME LEFT:  2.00D  GRAD.:    13.778 HEAT:-53.69765
 CYCLE:     9 TIME:   0.007 TIME LEFT:  2.00D  GRAD.:    10.600 HEAT:-53.78789
 CYCLE:    10 TIME:   0.007 TIME LEFT:  2.00D  GRAD.:    13.460 HEAT:-53.85249
 CYCLE:    11 TIME:   0.013 TIME LEFT:  2.00D  GRAD.:    12.763 HEAT:-53.90159
 CYCLE:    12 TIME:   0.013 TIME LEFT:  2.00D  GRAD.:     9.830 HEAT:-53.94381
 CYCLE:    13 TIME:   0.013 TIME LEFT:  2.00D  GRAD.:     7.116 HEAT:-53.97474
 CYCLE:    14 TIME:   0.007 TIME LEFT:  2.00D  GRAD.:     8.609 HEAT:-53.99520
 CYCLE:    15 TIME:   0.007 TIME LEFT:  2.00D  GRAD.:     8.084 HEAT:-54.01981
 CYCLE:    16 TIME:   0.007 TIME LEFT:  2.00D  GRAD.:    12.152 HEAT:-54.02339
 CYCLE:    17 TIME:   0.008 TIME LEFT:  2.00D  GRAD.:     8.379 HEAT:-54.06252
 CYCLE:    18 TIME:   0.014 TIME LEFT:  2.00D  GRAD.:     7.759 HEAT:-54.07366
 CYCLE:    19 TIME:   0.007 TIME LEFT:  2.00D  GRAD.:     8.304 HEAT:-54.08171
 CYCLE:    20 TIME:   0.008 TIME LEFT:  2.00D  GRAD.:     6.523 HEAT:-54.09642
 CYCLE:    21 TIME:   0.007 TIME LEFT:  2.00D  GRAD.:     4.487 HEAT:-54.11193
 CYCLE:    22 TIME:   0.007 TIME LEFT:  2.00D  GRAD.:     9.394 HEAT:-54.11294
 CYCLE:    23 TIME:   0.007 TIME LEFT:  2.00D  GRAD.:     5.760 HEAT:-54.14393
 CYCLE:    24 TIME:   0.007 TIME LEFT:  2.00D  GRAD.:     7.807 HEAT:-54.15231
 CYCLE:    25 TIME:   0.007 TIME LEFT:  2.00D  GRAD.:     5.113 HEAT:-54.17168
 CYCLE:    26 TIME:   0.007 TIME LEFT:  2.00D  GRAD.:     4.773 HEAT:-54.18084
 CYCLE:    27 TIME:   0.007 TIME LEFT:  2.00D  GRAD.:     3.606 HEAT:-54.19075
 CYCLE:    28 TIME:   0.007 TIME LEFT:  2.00D  GRAD.:     4.793 HEAT:-54.19921
 CYCLE:    29 TIME:   0.007 TIME LEFT:  2.00D  GRAD.:     3.983 HEAT:-54.21200
 CYCLE:    30 TIME:   0.007 TIME LEFT:  2.00D  GRAD.:     2.995 HEAT:-54.23099
 CYCLE:    31 TIME:   0.007 TIME LEFT:  2.00D  GRAD.:     3.035 HEAT:-54.24565
 CYCLE:    32 TIME:   0.007 TIME LEFT:  2.00D  GRAD.:     3.476 HEAT:-54.26090
 CYCLE:    33 TIME:   0.007 TIME LEFT:  2.00D  GRAD.:     2.660 HEAT:-54.27564
 CYCLE:    34 TIME:   0.007 TIME LEFT:  2.00D  GRAD.:     2.143 HEAT:-54.28645
 CYCLE:    35 TIME:   0.007 TIME LEFT:  2.00D  GRAD.:     1.853 HEAT:-54.29272
 CYCLE:    36 TIME:   0.007 TIME LEFT:  2.00D  GRAD.:     1.782 HEAT:-54.29805
 CYCLE:    37 TIME:   0.007 TIME LEFT:  2.00D  GRAD.:     1.965 HEAT:-54.30684
 CYCLE:    38 TIME:   0.007 TIME LEFT:  2.00D  GRAD.:     1.921 HEAT:-54.31451
 CYCLE:    39 TIME:   0.007 TIME LEFT:  2.00D  GRAD.:     2.016 HEAT:-54.32133
 CYCLE:    40 TIME:   0.007 TIME LEFT:  2.00D  GRAD.:     2.349 HEAT:-54.33101
 CYCLE:    41 TIME:   0.007 TIME LEFT:  2.00D  GRAD.:     2.477 HEAT:-54.34508
 CYCLE:    42 TIME:   0.007 TIME LEFT:  2.00D  GRAD.:     4.405 HEAT:-54.35788
 CYCLE:    43 TIME:   0.007 TIME LEFT:  2.00D  GRAD.:     6.977 HEAT:-54.35863
 CYCLE:    44 TIME:   0.007 TIME LEFT:  2.00D  GRAD.:     2.506 HEAT:-54.37737
 CYCLE:    45 TIME:   0.007 TIME LEFT:  2.00D  GRAD.:     1.988 HEAT:-54.38446
 CYCLE:    46 TIME:   0.008 TIME LEFT:  2.00D  GRAD.:     2.270 HEAT:-54.39363
 CYCLE:    47 TIME:   0.007 TIME LEFT:  2.00D  GRAD.:     2.721 HEAT:-54.41111
 CYCLE:    48 TIME:   0.007 TIME LEFT:  2.00D  GRAD.:     3.169 HEAT:-54.42817
 CYCLE:    49 TIME:   0.007 TIME LEFT:  2.00D  GRAD.:     3.460 HEAT:-54.45215
 CYCLE:    50 TIME:   0.007 TIME LEFT:  2.00D  GRAD.:     4.337 HEAT:-54.46089
 CYCLE:    51 TIME:   0.007 TIME LEFT:  2.00D  GRAD.:     5.605 HEAT:-54.47176
 CYCLE:    52 TIME:   0.007 TIME LEFT:  2.00D  GRAD.:     3.215 HEAT:-54.48980
 CYCLE:    53 TIME:   0.007 TIME LEFT:  2.00D  GRAD.:     2.021 HEAT:-54.50097
 CYCLE:    54 TIME:   0.007 TIME LEFT:  2.00D  GRAD.:     2.459 HEAT:-54.52306
 CYCLE:    55 TIME:   0.007 TIME LEFT:  2.00D  GRAD.:     2.332 HEAT:-54.53732
 CYCLE:    56 TIME:   0.007 TIME LEFT:  2.00D  GRAD.:     2.212 HEAT:-54.55533
 CYCLE:    57 TIME:   0.007 TIME LEFT:  2.00D  GRAD.:     2.459 HEAT:-54.57495
 CYCLE:    58 TIME:   0.007 TIME LEFT:  2.00D  GRAD.:     2.937 HEAT:-54.59203
 CYCLE:    59 TIME:   0.007 TIME LEFT:  2.00D  GRAD.:     1.506 HEAT:-54.60162
 CYCLE:    60 TIME:   0.007 TIME LEFT:  2.00D  GRAD.:     1.128 HEAT:-54.60612
 CYCLE:    61 TIME:   0.007 TIME LEFT:  2.00D  GRAD.:     1.432 HEAT:-54.60927
 CYCLE:    62 TIME:   0.007 TIME LEFT:  2.00D  GRAD.:     0.922 HEAT:-54.61134
 CYCLE:    63 TIME:   0.007 TIME LEFT:  2.00D  GRAD.:     0.718 HEAT:-54.61276
 CYCLE:    64 TIME:   0.007 TIME LEFT:  2.00D  GRAD.:     0.622 HEAT:-54.61376
 CYCLE:    65 TIME:   0.007 TIME LEFT:  2.00D  GRAD.:     0.695 HEAT:-54.61460
 CYCLE:    66 TIME:   0.007 TIME LEFT:  2.00D  GRAD.:     0.863 HEAT:-54.61611
 CYCLE:    67 TIME:   0.007 TIME LEFT:  2.00D  GRAD.:     0.881 HEAT:-54.61769
 CYCLE:    68 TIME:   0.007 TIME LEFT:  2.00D  GRAD.:     0.799 HEAT:-54.61974
 CYCLE:    69 TIME:   0.007 TIME LEFT:  2.00D  GRAD.:     0.651 HEAT:-54.62055
 CYCLE:    70 TIME:   0.007 TIME LEFT:  2.00D  GRAD.:     0.705 HEAT:-54.62176
 CYCLE:    71 TIME:   0.007 TIME LEFT:  2.00D  GRAD.:     0.440 HEAT:-54.62224
 CYCLE:    72 TIME:   0.007 TIME LEFT:  2.00D  GRAD.:     0.425 HEAT:-54.62293
 CYCLE:    73 TIME:   0.007 TIME LEFT:  2.00D  GRAD.:     0.329 HEAT:-54.62318
 CYCLE:    74 TIME:   0.007 TIME LEFT:  2.00D  GRAD.:     0.381 HEAT:-54.62363
 CYCLE:    75 TIME:   0.007 TIME LEFT:  2.00D  GRAD.:     0.324 HEAT:-54.62388
 CYCLE:    76 TIME:   0.007 TIME LEFT:  2.00D  GRAD.:     0.341 HEAT:-54.62428
 CYCLE:    77 TIME:   0.007 TIME LEFT:  2.00D  GRAD.:     0.238 HEAT:-54.62450
 CYCLE:    78 TIME:   0.007 TIME LEFT:  2.00D  GRAD.:     0.185 HEAT:-54.62460
 CYCLE:    79 TIME:   0.007 TIME LEFT:  2.00D  GRAD.:     0.157 HEAT:-54.62475
 CYCLE:    80 TIME:   0.007 TIME LEFT:  2.00D  GRAD.:     0.152 HEAT:-54.62488
 CYCLE:    81 TIME:   0.007 TIME LEFT:  2.00D  GRAD.:     0.151 HEAT:-54.62492
 CYCLE:    82 TIME:   0.007 TIME LEFT:  2.00D  GRAD.:     0.127 HEAT:-54.62496
 CYCLE:    83 TIME:   0.007 TIME LEFT:  2.00D  GRAD.:     0.134 HEAT:-54.62500
 CYCLE:    84 TIME:   0.007 TIME LEFT:  2.00D  GRAD.:     0.118 HEAT:-54.62503
 CYCLE:    85 TIME:   0.007 TIME LEFT:  2.00D  GRAD.:     0.242 HEAT:-54.62502
 CYCLE:    86 TIME:   0.007 TIME LEFT:  2.00D  GRAD.:     0.139 HEAT:-54.62513
 CYCLE:    87 TIME:   0.007 TIME LEFT:  2.00D  GRAD.:     0.099 HEAT:-54.62515
 CYCLE:    88 TIME:   0.007 TIME LEFT:  2.00D  GRAD.:     0.082 HEAT:-54.62519
 CYCLE:    89 TIME:   0.007 TIME LEFT:  2.00D  GRAD.:     0.097 HEAT:-54.62521
 CYCLE:    90 TIME:   0.007 TIME LEFT:  2.00D  GRAD.:     0.107 HEAT:-54.62524
 CYCLE:    91 TIME:   0.007 TIME LEFT:  2.00D  GRAD.:     0.080 HEAT:-54.62526
 CYCLE:    92 TIME:   0.007 TIME LEFT:  2.00D  GRAD.:     0.189 HEAT:-54.62512
 CYCLE:    93 TIME:   0.008 TIME LEFT:  2.00D  GRAD.:     0.046 HEAT:-54.62529

     RMS GRADIENT =  0.04650  IS LESS THAN CUTOFF =  0.05000



 -------------------------------------------------------------------------------
pm3  precise nosym
 InChI=1S/C8H14O/c1-2-7-5-3-4-6-8(7)9/h3,5,7-9H,2,4,6H2,1H3



     GEOMETRY OPTIMISED USING EIGENVECTOR FOLLOWING (EF).     
     SCF FIELD WAS ACHIEVED                                   


                              PM3 CALCULATION
                                                       MOPAC2012 (Version: 13.159M)
                                                       Mon Jun  2 14:11:46 2014
                                                       No. of days left =   6




          FINAL HEAT OF FORMATION =        -54.62529 KCAL/MOL =    -228.55222 KJ/MOL


          TOTAL ENERGY            =      -1458.07454 EV
          ELECTRONIC ENERGY       =      -7685.48171 EV  POINT GROUP:     C1  
          CORE-CORE REPULSION     =       6227.40717 EV
          COSMO AREA              =        172.37 SQUARE ANGSTROMS
          COSMO VOLUME            =        174.86 CUBIC ANGSTROMS

          GRADIENT NORM           =          0.04650
          IONIZATION POTENTIAL    =          9.725091 EV
          HOMO LUMO ENERGIES (EV) =         -9.725  1.090
          NO. OF FILLED LEVELS    =         26
          MOLECULAR WEIGHT        =        126.198

          MOLECULAR DIMENSIONS (Angstroms)

            Atom       Atom       Distance
            H    19    H    23     5.87526
            H    21    H    12     5.44309
            H    10    H    16     2.94825


          SCF CALCULATIONS        =        103
          COMPUTATION TIME        =          0.733 SECONDS




   ATOM   CHEMICAL          X               Y               Z
  NUMBER   SYMBOL      (ANGSTROMS)     (ANGSTROMS)     (ANGSTROMS)
 
     1       C         -0.43848174  *   0.12452301  *  -0.36084401  *
     2       C          0.62388553  *   1.09595232  *   0.19693287  *
     3       C          2.03541864  *   0.61353128  *  -0.17319809  *
     4       C         -1.80975145  *   0.39792201  *   0.26679556  *
     5       C          2.30603030  *  -0.75543089  *   0.42542495  *
     6       C         -2.89663289  *  -0.42904344  *  -0.38448764  *
     7       C         -0.04827119  *  -1.29975514  *  -0.12861011  *
     8       C          1.17706890  *  -1.69755885  *   0.21140967  *
     9       O          0.35584870  *   2.37011681  *  -0.36279495  *
    10       H         -0.51631417  *   0.26559736  *  -1.46919812  *
    11       H          0.52806567  *   1.16069899  *   1.30955713  *
    12       H         -2.05102163  *   1.47521991  *   0.17804667  *
    13       H         -1.77150714  *   0.18586586  *   1.35389057  *
    14       H          2.14264161  *   0.57805948  *  -1.27564736  *
    15       H          2.79725773  *   1.33672239  *   0.17926784  *
    16       H          2.48889396  *  -0.67395046  *   1.51642550  *
    17       H          3.23417975  *  -1.17855742  *  -0.00622020  *
    18       H         -2.62443594  *  -1.49822536  *  -0.38776604  *
    19       H         -3.85132163  *  -0.32681607  *   0.14524219  *
    20       H         -3.06332498  *  -0.13243165  *  -1.42820240  *
    21       H          1.39756856  *  -2.75989955  *   0.36389120  *
    22       H         -0.87102698  *  -2.02123960  *  -0.26289450  *
    23       H          1.01804173  *   2.95644305  *  -0.02257265  *

           Empirical Formula: C8 H14 O  =    23 atoms



      MOLECULAR POINT GROUP   :   C1  


                  EIGENVALUES  
 -41.79874 -36.19623 -34.89378 -29.07791 -28.04788 -23.44688 -21.47560 -20.61350
 -18.61157 -17.64599 -16.83800 -15.78736 -15.42084 -14.93794 -14.65287 -14.25494
 -13.76307 -13.61682 -13.27128 -12.64454 -12.53780 -12.05439 -11.59754 -11.28343
 -10.97296  -9.72509   1.08993   3.08626   3.31454   3.48277   3.51263   3.67568
   3.68654   3.81970   3.94171   4.03414   4.04890   4.21996   4.30700   4.46958
   4.52388   4.61560   4.71957   4.76447   5.01409   5.09954   5.14966   5.59949
   5.77502   5.94137


              NET ATOMIC CHARGES AND DIPOLE CONTRIBUTIONS

  ATOM NO.   TYPE          CHARGE      No. of ELECS.   s-Pop       p-Pop       
    1          C          -0.050695        4.0507     1.16925     2.88145
    2          C           0.082567        3.9174     1.17381     2.74362
    3          C          -0.137433        4.1374     1.17078     2.96666
    4          C          -0.094020        4.0940     1.16057     2.93345
    5          C          -0.051536        4.0515     1.14431     2.90723
    6          C          -0.116317        4.1163     1.14043     2.97589
    7          C          -0.150264        4.1503     1.19935     2.95092
    8          C          -0.151863        4.1519     1.19299     2.95887
    9          O          -0.309088        6.3091     1.81053     4.49855
   10          H           0.084868        0.9151     0.91513
   11          H           0.045944        0.9541     0.95406
   12          H           0.063691        0.9363     0.93631
   13          H           0.048422        0.9516     0.95158
   14          H           0.065696        0.9343     0.93430
   15          H           0.048140        0.9519     0.95186
   16          H           0.054485        0.9455     0.94552
   17          H           0.054544        0.9455     0.94546
   18          H           0.040679        0.9593     0.95932
   19          H           0.038915        0.9611     0.96109
   20          H           0.040237        0.9598     0.95976
   21          H           0.098703        0.9013     0.90130
   22          H           0.109099        0.8909     0.89090
   23          H           0.185224        0.8148     0.81478
 DIPOLE           X         Y         Z       TOTAL
 POINT-CHG.     0.499    -0.348     0.530     0.807
 HYBRID         0.561     0.067     0.322     0.650
 SUM            1.059    -0.281     0.852     1.388


          ATOMIC ORBITAL ELECTRON POPULATIONS

    Atom      s        px        py        pz   
    1  C   1.16925   0.94639   0.92447   1.01058
    2  C   1.17381   0.93096   0.85326   0.95939
    3  C   1.17078   0.97157   0.97356   1.02152
    4  C   1.16057   0.93729   1.00618   0.98999
    5  C   1.14431   0.96729   0.94089   0.99905
    6  C   1.14043   0.97810   0.99592   1.00187
    7  C   1.19935   0.97088   0.97309   1.00694
    8  C   1.19299   0.95503   0.98563   1.01821
    9  O   1.81053   1.57221   1.18983   1.73652
   10  H   0.91513
   11  H   0.95406
   12  H   0.93631
   13  H   0.95158
   14  H   0.93430
   15  H   0.95186
   16  H   0.94552
   17  H   0.94546
   18  H   0.95932
   19  H   0.96109
   20  H   0.95976
   21  H   0.90130
   22  H   0.89090
   23  H   0.81478
 *******************************************************************************
 ** Site#: 14399           For non-commercial use only        Version 13.159M **
 *******************************************************************************
 ** Cite this work as: MOPAC2012, James J. P. Stewart, Stewart Computational  **
 ** Chemistry, Version 13.159M web: HTTP://OpenMOPAC.net  Days remaining:   6 **
 *******************************************************************************
 **                                                                           **
 **                                MOPAC2012                                  **
 **                                                                           **
 *******************************************************************************

                            PM3 CALCULATION RESULTS


 *******************************************************************************
 *  CALCULATION DONE:                                Mon Jun  2 14:11:46 2014  *
 *  PM3      - The PM3 Hamiltonian to be used
 *  OLDGEO   - PREVIOUS GEOMETRY TO BE USED
 *  PRECISE  - CRITERIA TO BE INCREASED BY 100 TIMES
 *  NOSYM    - POINT-GROUP SYMMETRY SET TO C1
 *  T=       - A TIME OF 172800.0 SECONDS REQUESTED
 *  DUMP=N   - RESTART FILE WRITTEN EVERY  7200.000 SECONDS
 *  THERMO   - THERMODYNAMIC QUANTITIES TO BE CALCULATED
 *******************************************************************************
oldgeo thermo nosym precise  pm3

   ATOM   CHEMICAL          X               Y               Z
  NUMBER   SYMBOL      (ANGSTROMS)     (ANGSTROMS)     (ANGSTROMS)
 
     1       C         -0.43848174  *   0.12452301  *  -0.36084401  *
     2       C          0.62388553  *   1.09595232  *   0.19693287  *
     3       C          2.03541864  *   0.61353128  *  -0.17319809  *
     4       C         -1.80975145  *   0.39792201  *   0.26679556  *
     5       C          2.30603030  *  -0.75543089  *   0.42542495  *
     6       C         -2.89663289  *  -0.42904344  *  -0.38448764  *
     7       C         -0.04827119  *  -1.29975514  *  -0.12861011  *
     8       C          1.17706890  *  -1.69755885  *   0.21140967  *
     9       O          0.35584870  *   2.37011681  *  -0.36279495  *
    10       H         -0.51631417  *   0.26559736  *  -1.46919812  *
    11       H          0.52806567  *   1.16069899  *   1.30955713  *
    12       H         -2.05102163  *   1.47521991  *   0.17804667  *
    13       H         -1.77150714  *   0.18586586  *   1.35389057  *
    14       H          2.14264161  *   0.57805948  *  -1.27564736  *
    15       H          2.79725773  *   1.33672239  *   0.17926784  *
    16       H          2.48889396  *  -0.67395046  *   1.51642550  *
    17       H          3.23417975  *  -1.17855742  *  -0.00622020  *
    18       H         -2.62443594  *  -1.49822536  *  -0.38776604  *
    19       H         -3.85132163  *  -0.32681607  *   0.14524219  *
    20       H         -3.06332498  *  -0.13243165  *  -1.42820240  *
    21       H          1.39756856  *  -2.75989955  *   0.36389120  *
    22       H         -0.87102698  *  -2.02123960  *  -0.26289450  *
    23       H          1.01804173  *   2.95644305  *  -0.02257265  *
 


          CARTESIAN COORDINATES 

    NO.       ATOM         X         Y         Z

     1         C       -0.4385    0.1245   -0.3608
     2         C        0.6239    1.0960    0.1969
     3         C        2.0354    0.6135   -0.1732
     4         C       -1.8098    0.3979    0.2668
     5         C        2.3060   -0.7554    0.4254
     6         C       -2.8966   -0.4290   -0.3845
     7         C       -0.0483   -1.2998   -0.1286
     8         C        1.1771   -1.6976    0.2114
     9         O        0.3558    2.3701   -0.3628
    10         H       -0.5163    0.2656   -1.4692
    11         H        0.5281    1.1607    1.3096
    12         H       -2.0510    1.4752    0.1780
    13         H       -1.7715    0.1859    1.3539
    14         H        2.1426    0.5781   -1.2756
    15         H        2.7973    1.3367    0.1793
    16         H        2.4889   -0.6740    1.5164
    17         H        3.2342   -1.1786   -0.0062
    18         H       -2.6244   -1.4982   -0.3878
    19         H       -3.8513   -0.3268    0.1452
    20         H       -3.0633   -0.1324   -1.4282
    21         H        1.3976   -2.7599    0.3639
    22         H       -0.8710   -2.0212   -0.2629
    23         H        1.0180    2.9564   -0.0226

  H: (PM3): J. J. P. STEWART, J. COMP. CHEM. 10, 209 (1989).
  C: (PM3): J. J. P. STEWART, J. COMP. CHEM. 10, 209 (1989).
  O: (PM3): J. J. P. STEWART, J. COMP. CHEM. 10, 209 (1989).

           Empirical Formula: C8 H14 O  =    23 atoms



      MOLECULAR POINT GROUP   :   C1  


      RHF CALCULATION, NO. OF DOUBLY OCCUPIED LEVELS =   26



          HEAT OF FORMATION =     -54.625291 KCALS/MOLE


          INTERNAL COORDINATE DERIVATIVES

   NUMBER  ATOM       BOND         ANGLE      DIHEDRAL

     1       C      0.002931     0.005407    -0.001935
     2       C     -0.000080     0.005116     0.000911
     3       C      0.007404     0.005933     0.000156
     4       C      0.003693     0.000504    -0.002362
     5       C      0.001033    -0.001187    -0.000379
     6       C      0.004455    -0.004259     0.001664
     7       C      0.004980     0.007095    -0.000479
     8       C      0.002137     0.007282    -0.001319
     9       O      0.012255     0.002746    -0.005277
    10       H     -0.011138    -0.010865    -0.000755
    11       H     -0.008180    -0.003279    -0.002017
    12       H      0.007485    -0.002676    -0.002173
    13       H     -0.002928    -0.005424    -0.001288
    14       H      0.004716     0.008099    -0.002728
    15       H      0.006848    -0.008859     0.010108
    16       H     -0.005585    -0.010156    -0.000456
    17       H     -0.001809    -0.005324    -0.001843
    18       H      0.004821    -0.002879     0.004754
    19       H     -0.001458     0.006201    -0.001715
    20       H     -0.002962    -0.003394    -0.004219
    21       H     -0.011045    -0.002668     0.001143
    22       H      0.000702     0.008055     0.003883
    23       H     -0.018275     0.004532     0.006327


          GRADIENT NORM =   0.04698


          TIME FOR SCF CALCULATION =    0.01

          TIME FOR DERIVATIVES     =    0.00

          MOLECULAR WEIGHT =  126.20



          ROTATIONAL CONSTANTS IN CM(-1)

          A =    0.07526004   B =    0.04548088   C =    0.03026279



           PRINCIPAL MOMENTS OF INERTIA IN UNITS OF 10**(-40)*GRAM-CM**2

          A =      371.9474   B =      615.4845   C =      924.9897


          ORIENTATION OF MOLECULE IN FORCE CALCULATION

    NO.       ATOM         X         Y         Z

     1          C      -0.4956   -0.2919    0.3029
     2          C       1.0482   -0.2919    0.3029
     3          C       1.5823    1.1493    0.3029
     4          C      -1.0404   -1.6858   -0.0276
     5          C       1.1234    1.8889   -0.9413
     6          C      -2.5440   -1.7491    0.1292
     7          C      -1.0394    0.7089   -0.6653
     8          C      -0.3236    1.6897   -1.2141
     9          O       1.4633   -0.9910    1.4638
    10          H      -0.8608    0.0046    1.3193
    11          H       1.4250   -0.8328   -0.6008
    12          H      -0.5606   -2.4377    0.6289
    13          H      -0.7548   -1.9624   -1.0621
    14          H       1.2354    1.6778    1.2131
    15          H       2.6889    1.1527    0.3573
    16          H       1.6947    1.5488   -1.8292
    17          H       1.3399    2.9702   -0.8381
    18          H      -3.0306   -0.9434   -0.4464
    19          H      -2.9452   -2.7057   -0.2262
    20          H      -2.8492   -1.6305    1.1770
    21          H      -0.7853    2.3932   -1.9158
    22          H      -2.1080    0.5751   -0.9009
    23          H       2.4108   -0.9772    1.4599


    FIRST DERIVATIVES WILL BE USED IN THE CALCULATION OF SECOND DERIVATIVES

          ESTIMATED TIME TO COMPLETE CALCULATION =        2.76 SECONDS

    FOR POINT-GROUP C1   THERE ARE   1 UNIQUE SYMMETRY FUNCTIONS.

 STEP:   1 TIME =     0.03 SECS, INTEGRAL =      0.03 TIME LEFT: 172799.96
 STEP:   2 TIME =     0.03 SECS, INTEGRAL =      0.06 TIME LEFT: 172799.93
 STEP:   3 TIME =     0.03 SECS, INTEGRAL =      0.09 TIME LEFT: 172799.90
 STEP:   4 TIME =     0.03 SECS, INTEGRAL =      0.12 TIME LEFT: 172799.87
 STEP:   5 TIME =     0.03 SECS, INTEGRAL =      0.16 TIME LEFT: 172799.83
 STEP:   6 TIME =     0.03 SECS, INTEGRAL =      0.19 TIME LEFT: 172799.80
 STEP:   7 TIME =     0.03 SECS, INTEGRAL =      0.22 TIME LEFT: 172799.77
 STEP:   8 TIME =     0.03 SECS, INTEGRAL =      0.25 TIME LEFT: 172799.74
 STEP:   9 TIME =     0.03 SECS, INTEGRAL =      0.28 TIME LEFT: 172799.71
 STEP:  10 TIME =     0.03 SECS, INTEGRAL =      0.31 TIME LEFT: 172799.68
 STEP:  11 TIME =     0.03 SECS, INTEGRAL =      0.34 TIME LEFT: 172799.65
 STEP:  12 TIME =     0.03 SECS, INTEGRAL =      0.37 TIME LEFT: 172799.62
 STEP:  13 TIME =     0.03 SECS, INTEGRAL =      0.40 TIME LEFT: 172799.59
 STEP:  14 TIME =     0.03 SECS, INTEGRAL =      0.43 TIME LEFT: 172799.56
 STEP:  15 TIME =     0.03 SECS, INTEGRAL =      0.46 TIME LEFT: 172799.53
 STEP:  16 TIME =     0.03 SECS, INTEGRAL =      0.49 TIME LEFT: 172799.50
 STEP:  17 TIME =     0.03 SECS, INTEGRAL =      0.52 TIME LEFT: 172799.47
 STEP:  18 TIME =     0.03 SECS, INTEGRAL =      0.55 TIME LEFT: 172799.44
 STEP:  19 TIME =     0.03 SECS, INTEGRAL =      0.59 TIME LEFT: 172799.40
 STEP:  20 TIME =     0.03 SECS, INTEGRAL =      0.62 TIME LEFT: 172799.37
 STEP:  21 TIME =     0.04 SECS, INTEGRAL =      0.65 TIME LEFT: 172799.34
 STEP:  22 TIME =     0.04 SECS, INTEGRAL =      0.69 TIME LEFT: 172799.30
 STEP:  23 TIME =     0.04 SECS, INTEGRAL =      0.73 TIME LEFT: 172799.26
 STEP:  24 TIME =     0.04 SECS, INTEGRAL =      0.76 TIME LEFT: 172799.23
 STEP:  25 TIME =     0.04 SECS, INTEGRAL =      0.80 TIME LEFT: 172799.19
 STEP:  26 TIME =     0.04 SECS, INTEGRAL =      0.85 TIME LEFT: 172799.14
 STEP:  27 TIME =     0.04 SECS, INTEGRAL =      0.88 TIME LEFT: 172799.11
 STEP:  28 TIME =     0.04 SECS, INTEGRAL =      0.92 TIME LEFT: 172799.07
 STEP:  29 TIME =     0.04 SECS, INTEGRAL =      0.96 TIME LEFT: 172799.03
 STEP:  30 TIME =     0.04 SECS, INTEGRAL =      1.00 TIME LEFT: 172798.99
 STEP:  31 TIME =     0.04 SECS, INTEGRAL =      1.04 TIME LEFT: 172798.95
 STEP:  32 TIME =     0.03 SECS, INTEGRAL =      1.07 TIME LEFT: 172798.92
 STEP:  33 TIME =     0.04 SECS, INTEGRAL =      1.11 TIME LEFT: 172798.88
 STEP:  34 TIME =     0.03 SECS, INTEGRAL =      1.14 TIME LEFT: 172798.85
 STEP:  35 TIME =     0.03 SECS, INTEGRAL =      1.17 TIME LEFT: 172798.82
 STEP:  36 TIME =     0.03 SECS, INTEGRAL =      1.20 TIME LEFT: 172798.79
 STEP:  37 TIME =     0.03 SECS, INTEGRAL =      1.23 TIME LEFT: 172798.76
 STEP:  38 TIME =     0.03 SECS, INTEGRAL =      1.26 TIME LEFT: 172798.73
 STEP:  39 TIME =     0.03 SECS, INTEGRAL =      1.29 TIME LEFT: 172798.70
 STEP:  40 TIME =     0.03 SECS, INTEGRAL =      1.32 TIME LEFT: 172798.67
 STEP:  41 TIME =     0.03 SECS, INTEGRAL =      1.35 TIME LEFT: 172798.64
 STEP:  42 TIME =     0.03 SECS, INTEGRAL =      1.38 TIME LEFT: 172798.61
 STEP:  43 TIME =     0.03 SECS, INTEGRAL =      1.41 TIME LEFT: 172798.58
 STEP:  44 TIME =     0.03 SECS, INTEGRAL =      1.44 TIME LEFT: 172798.55
 STEP:  45 TIME =     0.03 SECS, INTEGRAL =      1.47 TIME LEFT: 172798.52
 STEP:  46 TIME =     0.03 SECS, INTEGRAL =      1.50 TIME LEFT: 172798.49
 STEP:  47 TIME =     0.03 SECS, INTEGRAL =      1.53 TIME LEFT: 172798.46
 STEP:  48 TIME =     0.03 SECS, INTEGRAL =      1.56 TIME LEFT: 172798.43
 STEP:  49 TIME =     0.03 SECS, INTEGRAL =      1.59 TIME LEFT: 172798.40
 STEP:  50 TIME =     0.03 SECS, INTEGRAL =      1.62 TIME LEFT: 172798.37
 STEP:  51 TIME =     0.03 SECS, INTEGRAL =      1.65 TIME LEFT: 172798.34
 STEP:  52 TIME =     0.03 SECS, INTEGRAL =      1.68 TIME LEFT: 172798.31
 STEP:  53 TIME =     0.03 SECS, INTEGRAL =      1.72 TIME LEFT: 172798.27
 STEP:  54 TIME =     0.03 SECS, INTEGRAL =      1.75 TIME LEFT: 172798.24
 STEP:  55 TIME =     0.03 SECS, INTEGRAL =      1.78 TIME LEFT: 172798.21
 STEP:  56 TIME =     0.03 SECS, INTEGRAL =      1.81 TIME LEFT: 172798.18
 STEP:  57 TIME =     0.03 SECS, INTEGRAL =      1.84 TIME LEFT: 172798.15
 STEP:  58 TIME =     0.03 SECS, INTEGRAL =      1.87 TIME LEFT: 172798.12
 STEP:  59 TIME =     0.03 SECS, INTEGRAL =      1.90 TIME LEFT: 172798.09
 STEP:  60 TIME =     0.03 SECS, INTEGRAL =      1.93 TIME LEFT: 172798.06
 STEP:  61 TIME =     0.03 SECS, INTEGRAL =      1.96 TIME LEFT: 172798.03
 STEP:  62 TIME =     0.03 SECS, INTEGRAL =      1.99 TIME LEFT: 172798.00
 STEP:  63 TIME =     0.03 SECS, INTEGRAL =      2.02 TIME LEFT: 172797.97
 STEP:  64 TIME =     0.03 SECS, INTEGRAL =      2.05 TIME LEFT: 172797.94
 STEP:  65 TIME =     0.03 SECS, INTEGRAL =      2.08 TIME LEFT: 172797.91
 STEP:  66 TIME =     0.03 SECS, INTEGRAL =      2.12 TIME LEFT: 172797.87
 STEP:  67 TIME =     0.03 SECS, INTEGRAL =      2.15 TIME LEFT: 172797.84
 STEP:  68 TIME =     0.03 SECS, INTEGRAL =      2.18 TIME LEFT: 172797.81
 STEP:  69 TIME =     0.03 SECS, INTEGRAL =      2.21 TIME LEFT: 172797.78

(To convert to Hartree/Bohr^2, multiply by (10^(-21) x N x a0^2)/(4.184 x 627.51) = 0.0642)


           FORCE MATRIX IN MILLIDYNES/ANGSTROM


                  C  1       C  2       C  3       C  4       C  5       C  6
 ------------------------------------------------------------------------------
     C    1  14.493864
     C    2   3.478299  14.406532
     C    3   0.595296   3.630265  14.329889
     C    4   3.773811   0.602716   0.048275  14.311368
     C    5   0.100305   0.634450   4.248422   0.008897  14.788742
     C    6   0.638566   0.052902   0.010335   4.434006   0.001224  14.326599
     C    7   4.687660   0.644038   0.069962   0.707640   0.847702   0.092375
     C    8   0.783846   0.072377   0.698716   0.046439   5.027258   0.007248
     O    9   0.823407   5.070246   0.864530   0.058561   0.077595   0.004052
     H   10   4.146965   0.456365   0.012730   0.432610   0.013420   0.031056
     H   11   0.428465   4.105333   0.425913   0.038524   0.021866   0.001381
     H   12   0.440402   0.041542   0.002391   4.490587   0.001570   0.434709
     H   13   0.448784   0.026200   0.001378   4.449334   0.000897   0.438757
     H   14   0.021686   0.460022   4.472958   0.001842   0.441035   0.000874
     H   15   0.046593   0.447698   4.460918   0.008357   0.434175   0.002122
     H   16   0.014088   0.018840   0.445129   0.000849   4.404073   0.000343
     H   17   0.009116   0.044841   0.434494   0.000699   4.468002   0.000386
     H   18   0.029739   0.003825   0.000809   0.464774   0.001186   4.547508
     H   19   0.051019   0.008863   0.002035   0.449761   0.000386   4.775573
     H   20   0.018687   0.002066   0.000653   0.462948   0.000265   4.740071
     H   21   0.121963   0.005771   0.042313   0.015424   0.426070   0.000751
     H   22   0.435119   0.042967   0.003867   0.047065   0.122177   0.090188
     H   23   0.106744   0.800376   0.082122   0.003681   0.007543   0.001374


                  C  7       C  8       O  9       H 10       H 11       H 12
 ------------------------------------------------------------------------------
     C    7  18.274500
     C    8  10.751587  18.253648
     O    9   0.064770   0.006054  11.944499
     H   10   0.389329   0.030860   0.078633   4.630472
     H   11   0.009082   0.005777   0.414169   0.038869   4.529698
     H   12   0.051088   0.008408   0.040517   0.023050   0.004218   5.097659
     H   13   0.021287   0.003089   0.002843   0.043678   0.023966   0.565224
     H   14   0.006641   0.010529   0.035759   0.009358   0.043959   0.000454
     H   15   0.004090   0.052328   0.044531   0.001398   0.023515   0.000583
     H   16   0.029676   0.411751   0.004371   0.001967   0.008878   0.000156
     H   17   0.043701   0.431945   0.014267   0.001090   0.001413   0.000344
     H   18   0.093362   0.001981   0.001961   0.002747   0.000439   0.048034
     H   19   0.005886   0.001033   0.000759   0.002151   0.000393   0.025053
     H   20   0.003933   0.000924   0.001125   0.017006   0.000533   0.028601
     H   21   0.442800   4.827320   0.002114   0.016651   0.000738   0.002819
     H   22   4.605308   0.438967   0.009701   0.019763   0.000975   0.002202
     H   23   0.016346   0.002865   8.331464   0.004493   0.040932   0.001875


                  H 13       H 14       H 15       H 16       H 17       H 18
 ------------------------------------------------------------------------------
     H   13   5.066045
     H   14   0.000487   5.088662
     H   15   0.000253   0.567689   5.090317
     H   16   0.000358   0.044100   0.034292   5.002210
     H   17   0.000254   0.035637   0.025048   0.568157   5.062746
     H   18   0.020717   0.000214   0.000104   0.000400   0.000215   5.308583
     H   19   0.033153   0.000160   0.000455   0.000113   0.000095   0.551965
     H   20   0.048254   0.000216   0.000111   0.000149   0.000096   0.566992
     H   21   0.000773   0.001495   0.007353   0.018648   0.034921   0.000637
     H   22   0.004655   0.000518   0.001081   0.017607   0.014457   0.081950
     H   23   0.001084   0.006351   0.033659   0.001291   0.001789   0.000608


                  H 19       H 20       H 21       H 22       H 23
 ------------------------------------------------------------------
     H   19   5.497606
     H   20   0.571749   5.472578
     H   21   0.000196   0.000243   5.200888
     H   22   0.002897   0.001537   0.070616   5.019927
     H   23   0.000349   0.000440   0.000949   0.002559   8.577994


          HEAT OF FORMATION =     -54.625291 KCALS/MOLE

          ZERO POINT ENERGY     128.068 KCAL/MOL


           NORMAL COORDINATE ANALYSIS (Total motion = 1 Angstrom)


   Root No.       1         2         3         4         5         6         7         8

                 1 A       2 A       3 A       4 A       5 A       6 A       7 A       8 A   

                  77.2     122.5     182.3     219.4     232.7     246.1     293.8     350.3
  
           1   -0.0004   -0.0005    0.0029    0.0080    0.0035    0.0147    0.0115    0.0225
           2   -0.0018   -0.0029   -0.0046   -0.0105    0.0014   -0.0292   -0.0176    0.0059
           3    0.0100   -0.0225   -0.0139   -0.0097    0.0017    0.0020   -0.0325    0.0010
           4   -0.0001   -0.0018    0.0023    0.0075    0.0051    0.0165    0.0109    0.0150
           5   -0.0033   -0.0001   -0.0135   -0.0031   -0.0020   -0.0102   -0.0062   -0.0030
           6    0.0106    0.0004   -0.0076    0.0005   -0.0015    0.0057   -0.0119    0.0023
           7    0.0121   -0.0065    0.0362   -0.0092    0.0064   -0.0085   -0.0119   -0.0057
           8   -0.0082    0.0015   -0.0263    0.0036   -0.0014    0.0019    0.0038    0.0016
           9   -0.0221    0.0114   -0.0338    0.0055   -0.0093   -0.0002    0.0038   -0.0004
          10    0.0054   -0.0002    0.0009    0.0019   -0.0018   -0.0233    0.0002    0.0428
          11    0.0047    0.0027   -0.0080   -0.0045    0.0004   -0.0087   -0.0240    0.0049
          12   -0.0300   -0.0459    0.0014   -0.0210    0.0142   -0.0272    0.0180    0.0013
          13    0.0032    0.0080   -0.0123   -0.0026   -0.0040   -0.0164    0.0042   -0.0308
          14   -0.0271    0.0029    0.0299   -0.0090    0.0077    0.0102   -0.0072   -0.0065
          15   -0.0297    0.0067    0.0181   -0.0044   -0.0004    0.0089   -0.0070   -0.0032
          16    0.0070    0.0115    0.0012    0.0036   -0.0044   -0.0280   -0.0042    0.0431
          17   -0.0108   -0.0109   -0.0038    0.0172    0.0030    0.0443    0.0097    0.0565
          18   -0.0215    0.0603    0.0041    0.0056   -0.0036   -0.0104    0.0049   -0.0046
          19   -0.0110    0.0053    0.0018   -0.0013    0.0025    0.0086    0.0082   -0.0130
          20    0.0192    0.0024   -0.0082   -0.0017   -0.0023   -0.0278   -0.0072   -0.0087
          21    0.0380   -0.0201   -0.0139    0.0046   -0.0011    0.0058   -0.0207    0.0088
          22   -0.0107    0.0105   -0.0077   -0.0073   -0.0017   -0.0064   -0.0087   -0.0266
          23    0.0080    0.0045    0.0128    0.0056   -0.0004   -0.0254    0.0343   -0.0156
          24    0.0189   -0.0098    0.0127    0.0101   -0.0024   -0.0060    0.0298   -0.0148
          25   -0.0064   -0.0216   -0.0239    0.0009   -0.0040    0.0431   -0.0052   -0.0403
          26    0.0209   -0.0001    0.0196   -0.0062   -0.0290    0.0273    0.0125   -0.0324
          27    0.0279    0.0078    0.0240    0.0016   -0.0135    0.0204    0.0053    0.0057
          28   -0.0012   -0.0126    0.0018    0.0074    0.0069    0.0168    0.0094    0.0271
          29   -0.0307   -0.0136    0.0051   -0.0201    0.0085   -0.0428    0.0022    0.0033
          30    0.0181   -0.0233   -0.0166   -0.0063    0.0007    0.0068   -0.0373    0.0046
          31   -0.0005    0.0137    0.0032    0.0208    0.0089    0.0248    0.0343    0.0303
          32   -0.0258    0.0007   -0.0455   -0.0016   -0.0101   -0.0158   -0.0049    0.0020
          33    0.0237    0.0066    0.0124    0.0055    0.0053    0.0135   -0.0022    0.0057
          34    0.0160    0.0531    0.0001    0.0050   -0.0125   -0.0381   -0.0209    0.0230
          35   -0.0127   -0.0221   -0.0008   -0.0142    0.0048   -0.0392   -0.0003    0.0019
          36   -0.0578   -0.1137    0.0104   -0.0347    0.0272   -0.0528    0.0611    0.0124
          37   -0.0007   -0.0697   -0.0006   -0.0173    0.0104   -0.0452    0.0117    0.0534
          38    0.0398    0.0525   -0.0213    0.0024   -0.0113    0.0101   -0.0773   -0.0050
          39   -0.0412   -0.0783    0.0046   -0.0278    0.0207   -0.0380    0.0362    0.0071
          40    0.0283   -0.0214    0.1154   -0.0301    0.0199   -0.0156   -0.0483   -0.0064
          41    0.0123   -0.0019   -0.0340    0.0029   -0.0020   -0.0089   -0.0020   -0.0020
          42   -0.0279    0.0078    0.0012   -0.0020   -0.0037    0.0038   -0.0064    0.0012
          43    0.0129   -0.0074    0.0404   -0.0100    0.0080   -0.0084   -0.0138   -0.0061
          44   -0.0180    0.0053   -0.0638    0.0195   -0.0003    0.0195    0.0240    0.0191
          45   -0.0363    0.0272   -0.1072    0.0208   -0.0281   -0.0009    0.0352   -0.0102
          46   -0.0321    0.0182   -0.0150   -0.0138   -0.0017    0.0045   -0.0314   -0.0240
          47   -0.0694    0.0036    0.1032   -0.0350    0.0241    0.0482   -0.0636    0.0052
          48   -0.0362    0.0131   -0.0116   -0.0018   -0.0051    0.0082   -0.0088   -0.0030
          49    0.0402    0.0073   -0.0423    0.0164   -0.0142   -0.0535    0.0597   -0.0501
          50   -0.0313    0.0027    0.0304   -0.0111    0.0087    0.0156   -0.0153   -0.0030
          51   -0.0649    0.0106    0.0822   -0.0248    0.0129    0.0343   -0.0453    0.0005
          52   -0.0021   -0.0267    0.0014   -0.0005    0.0042   -0.0118    0.0184    0.0614
          53    0.0111    0.0241   -0.0273   -0.0690    0.0575    0.0870    0.0471    0.0907
          54    0.0168    0.1413   -0.0288   -0.1111    0.0651    0.0352    0.0376    0.0266
          55    0.0100   -0.0142    0.0022   -0.0013   -0.0104   -0.0720   -0.0291    0.0031
          56    0.0021    0.0101   -0.0189   -0.0380    0.0396    0.0779    0.0375    0.0865
          57   -0.0596    0.0329    0.0438    0.1610   -0.0962   -0.0511   -0.0417   -0.0387
          58    0.0142    0.0875    0.0012    0.0171   -0.0125   -0.0079   -0.0082    0.0524
          59   -0.0577   -0.0730    0.0393    0.1821   -0.0918    0.0060   -0.0298    0.0321
          60   -0.0142    0.0893   -0.0007   -0.0086    0.0044   -0.0003    0.0081    0.0011
          61   -0.0205    0.0177   -0.0135   -0.0133   -0.0039   -0.0163   -0.0256   -0.0304
          62    0.0221    0.0080    0.0191    0.0171   -0.0041   -0.0436    0.0825   -0.0302
          63    0.0397   -0.0109    0.0224    0.0259   -0.0048   -0.0179    0.0897   -0.0266
          64   -0.0215    0.0058    0.0071   -0.0026    0.0025    0.0080    0.0090   -0.0174
          65    0.0414    0.0004   -0.0230   -0.0026   -0.0022   -0.0255   -0.0066   -0.0055
          66    0.0727   -0.0218   -0.0304    0.0105   -0.0016    0.0055   -0.0237    0.0291
          67   -0.0064   -0.0216   -0.0236   -0.0001   -0.0078    0.0432   -0.0049   -0.0400
          68    0.0157    0.0036   -0.0123    0.0958    0.3619    0.0130   -0.0192   -0.0996
          69    0.0304    0.0266    0.0284    0.0724    0.2470   -0.0139   -0.0014    0.0146


   Root No.       9        10        11        12        13        14        15        16

                 9 A      10 A      11 A      12 A      13 A      14 A      15 A      16 A   

                 423.3     450.9     486.2     524.8     571.3     711.0     780.2     832.8
  
           1   -0.0076   -0.0077   -0.0307    0.0256    0.0048   -0.0089    0.0112    0.0073
           2    0.0306   -0.0074   -0.0013    0.0155    0.0091    0.0083   -0.0054   -0.0016
           3   -0.0011    0.0099   -0.0051   -0.0265    0.0427   -0.0147    0.0084   -0.0076
           4   -0.0041   -0.0056   -0.0367    0.0394   -0.0039    0.0018   -0.0105   -0.0125
           5   -0.0131    0.0466   -0.0002   -0.0018   -0.0156    0.0044    0.0069   -0.0006
           6    0.0321    0.0163   -0.0150   -0.0356   -0.0310    0.0094    0.0031    0.0034
           7   -0.0006    0.0457   -0.0018    0.0253   -0.0187    0.0068   -0.0097   -0.0173
           8   -0.0212    0.0344   -0.0255   -0.0044   -0.0156    0.0038   -0.0049   -0.0012
           9    0.0052    0.0122    0.0113    0.0285   -0.0111   -0.0132    0.0148    0.0018
          10    0.0049   -0.0049    0.0242   -0.0123    0.0042    0.0009    0.0002   -0.0049
          11    0.0337   -0.0091   -0.0194    0.0296    0.0313    0.0167    0.0020    0.0291
          12   -0.0046   -0.0096   -0.0030    0.0038    0.0058   -0.0009    0.0098   -0.0286
          13   -0.0244    0.0024    0.0090   -0.0116    0.0064    0.0231   -0.0112   -0.0017
          14   -0.0234   -0.0103   -0.0218   -0.0345    0.0015   -0.0004   -0.0192    0.0043
          15    0.0099    0.0020    0.0229    0.0306   -0.0007   -0.0200    0.0030    0.0007
          16    0.0088   -0.0087    0.0287   -0.0146    0.0088    0.0028    0.0000    0.0011
          17    0.0045    0.0088    0.0232   -0.0109    0.0065    0.0042   -0.0006    0.0047
          18   -0.0028   -0.0018    0.0014   -0.0015   -0.0044   -0.0007    0.0003   -0.0050
          19   -0.0130   -0.0051   -0.0267   -0.0334    0.0232   -0.0368    0.0363    0.0195
          20   -0.0077   -0.0390    0.0071    0.0025   -0.0373   -0.0185   -0.0124   -0.0127
          21   -0.0485   -0.0147   -0.0025    0.0018   -0.0043   -0.0155   -0.0099    0.0102
          22   -0.0277   -0.0029    0.0097   -0.0108    0.0036    0.0121   -0.0036    0.0056
          23    0.0258   -0.0186   -0.0134   -0.0210   -0.0054   -0.0331    0.0012   -0.0106
          24   -0.0029    0.0286    0.0069   -0.0035    0.0305    0.0263   -0.0343    0.0056
          25    0.0449   -0.0132    0.0112   -0.0089   -0.0191    0.0070   -0.0057   -0.0008
          26   -0.0205   -0.0035    0.0355    0.0255    0.0224   -0.0105    0.0094    0.0014
          27    0.0191   -0.0205   -0.0159   -0.0065   -0.0133    0.0076   -0.0105   -0.0023
          28   -0.0259   -0.0288   -0.0413    0.0698    0.0285   -0.0156   -0.0018   -0.0058
          29    0.0633   -0.0105   -0.0131    0.0293    0.0298    0.0359    0.0229   -0.0185
          30   -0.0191    0.0024   -0.0056   -0.0137    0.0442   -0.0250   -0.0039   -0.0053
          31   -0.0201   -0.0117   -0.0590    0.0639   -0.0271    0.0051   -0.0148   -0.0075
          32   -0.0259    0.0743   -0.0047    0.0021   -0.0283   -0.0045    0.0270    0.0054
          33    0.0322   -0.0050   -0.0231   -0.0260   -0.0326    0.0168   -0.0125    0.0007
          34    0.0195   -0.0068    0.0227   -0.0112    0.0179    0.0038    0.0134   -0.0816
          35    0.0316   -0.0263   -0.0032    0.0392   -0.0092    0.0269   -0.0263    0.0979
          36   -0.0178   -0.0296    0.0173    0.0144   -0.0522    0.0087   -0.0340    0.1128
          37    0.0041   -0.0145    0.0372   -0.0147   -0.0067    0.0071   -0.0249    0.0950
          38    0.0528    0.0112   -0.0382    0.0142    0.1047    0.0100    0.0465   -0.0965
          39   -0.0109   -0.0177    0.0062    0.0069   -0.0191    0.0023   -0.0104    0.0362
          40    0.0375    0.1227    0.0205    0.0114   -0.0787   -0.0724    0.0580    0.0364
          41   -0.0124    0.0683   -0.0305   -0.0376   -0.0390    0.0209    0.0044    0.0079
          42    0.0142    0.0191    0.0231    0.0430   -0.0183   -0.0511    0.0340    0.0155
          43    0.0022    0.0499    0.0001    0.0255   -0.0225    0.0009   -0.0050   -0.0141
          44   -0.0270   -0.0114   -0.0563    0.0295    0.0070    0.0299   -0.0395   -0.0412
          45   -0.0367   -0.0530    0.0030    0.0292    0.0440    0.0671   -0.0428   -0.0431
          46   -0.0554   -0.0343    0.0177   -0.0057   -0.0162    0.0654    0.0394   -0.0024
          47   -0.0608   -0.0682   -0.0181   -0.0524   -0.0097    0.1168    0.0078   -0.0183
          48    0.0031   -0.0012    0.0268    0.0407   -0.0111   -0.0342    0.0266    0.0082
          49    0.0227    0.0196    0.0094   -0.0202    0.0302   -0.0695   -0.0429    0.0068
          50   -0.0318   -0.0081   -0.0228   -0.0315   -0.0036    0.0139   -0.0160    0.0038
          51   -0.0084   -0.0682    0.0320    0.0105   -0.0029    0.0562    0.0356   -0.0191
          52   -0.0113   -0.0061    0.0511   -0.0436   -0.0069   -0.0169    0.0127   -0.1033
          53   -0.0035    0.0157    0.0452   -0.0305   -0.0064   -0.0055   -0.0034   -0.0234
          54    0.0031    0.0053    0.0117   -0.0029   -0.0091    0.0029   -0.0149    0.0511
          55    0.0318   -0.0252   -0.0158    0.0307    0.0409    0.0232    0.0150    0.0372
          56   -0.0024    0.0167    0.0433   -0.0286   -0.0034   -0.0044   -0.0039   -0.0272
          57   -0.0108   -0.0043    0.0005   -0.0076   -0.0152   -0.0010   -0.0084    0.0405
          58    0.0080    0.0002    0.0460   -0.0287   -0.0058    0.0037   -0.0290    0.0997
          59   -0.0119    0.0077    0.0324   -0.0291   -0.0068   -0.0047    0.0013   -0.0231
          60   -0.0014    0.0009    0.0060   -0.0040   -0.0077    0.0006   -0.0090    0.0297
          61   -0.0133   -0.0084    0.0379    0.0217   -0.0154   -0.0186   -0.0670   -0.0250
          62    0.0487   -0.0108   -0.0059   -0.0203   -0.0116    0.0651    0.1290   -0.0149
          63    0.0111    0.0396   -0.0043   -0.0237    0.0375    0.1446    0.1363    0.0227
          64    0.0023    0.0080   -0.0279   -0.0409    0.0471   -0.0573   -0.0069    0.0144
          65   -0.0534   -0.0600    0.0359    0.0039   -0.0932    0.0464    0.0712   -0.0194
          66   -0.0923   -0.0620   -0.0090    0.0372   -0.0824    0.0414    0.1401    0.0348
          67    0.0448   -0.0131    0.0111   -0.0086   -0.0190    0.0069   -0.0056   -0.0008
          68    0.0094   -0.0075    0.0838    0.0044    0.0169   -0.0063    0.0146    0.0105
          69   -0.0188   -0.0124   -0.0331    0.0298    0.0073   -0.0009   -0.0117   -0.0146


   Root No.      17        18        19        20        21        22        23        24

                17 A      18 A      19 A      20 A      21 A      22 A      23 A      24 A   

                 868.1     916.0     960.6     981.6    1005.9    1016.5    1038.3    1063.6
  
           1    0.0031   -0.0168   -0.0026    0.0116   -0.0110   -0.0136    0.0094    0.0130
           2   -0.0066    0.0109   -0.0070    0.0117    0.0113   -0.0140    0.0101   -0.0004
           3   -0.0202    0.0242   -0.0108   -0.0010   -0.0088    0.0158    0.0013   -0.0163
           4   -0.0080    0.0096   -0.0127    0.0024    0.0037    0.0159    0.0058   -0.0118
           5   -0.0132   -0.0162    0.0035    0.0101   -0.0074    0.0049    0.0231    0.0050
           6   -0.0060   -0.0126    0.0096    0.0071    0.0007    0.0021    0.0091    0.0153
           7   -0.0258    0.0210    0.0287   -0.0184   -0.0018   -0.0108   -0.0081    0.0045
           8    0.0091    0.0063   -0.0074   -0.0048    0.0103    0.0060   -0.0184   -0.0017
           9   -0.0001    0.0008   -0.0034   -0.0078   -0.0077   -0.0191   -0.0128   -0.0093
          10    0.0010   -0.0012   -0.0007    0.0014   -0.0015   -0.0020    0.0074   -0.0013
          11    0.0104   -0.0099    0.0069   -0.0055    0.0068   -0.0004    0.0055   -0.0127
          12    0.0132   -0.0056   -0.0014    0.0038   -0.0089    0.0030   -0.0102    0.0119
          13    0.0055   -0.0016   -0.0064   -0.0011   -0.0216   -0.0118    0.0004   -0.0065
          14    0.0339    0.0275    0.0056   -0.0109   -0.0143   -0.0112    0.0129    0.0047
          15    0.0052    0.0095    0.0072    0.0026    0.0082    0.0155    0.0141    0.0148
          16    0.0068   -0.0025    0.0054   -0.0088    0.0001    0.0039   -0.0103    0.0015
          17    0.0059   -0.0089    0.0098   -0.0152   -0.0117    0.0115   -0.0097    0.0077
          18    0.0047   -0.0095    0.0064   -0.0112    0.0053    0.0021    0.0067   -0.0086
          19   -0.0126   -0.0058    0.0199    0.0064    0.0238   -0.0033   -0.0070   -0.0013
          20   -0.0083   -0.0061   -0.0160   -0.0127    0.0049    0.0021   -0.0020    0.0137
          21   -0.0039   -0.0148   -0.0063   -0.0129    0.0143   -0.0175    0.0045    0.0216
          22    0.0158   -0.0002   -0.0099    0.0039    0.0221    0.0176    0.0038    0.0091
          23   -0.0202   -0.0070    0.0076    0.0068   -0.0137    0.0009   -0.0190   -0.0161
          24    0.0124   -0.0166    0.0044    0.0247    0.0122    0.0022   -0.0167   -0.0129
          25    0.0037    0.0013   -0.0011   -0.0012   -0.0010   -0.0014   -0.0001   -0.0030
          26   -0.0058   -0.0018    0.0014    0.0014   -0.0003    0.0004   -0.0001    0.0021
          27    0.0081    0.0053   -0.0037   -0.0044   -0.0037   -0.0044   -0.0019   -0.0103
          28    0.0195   -0.0064   -0.0644    0.0251   -0.0627   -0.0208    0.0092    0.0056
          29    0.0208    0.0331   -0.0063    0.1147    0.0412   -0.0885   -0.0580    0.1095
          30   -0.0216    0.0197   -0.0325   -0.0268   -0.0365    0.0347    0.0220   -0.0516
          31    0.0170   -0.0273   -0.0505    0.0267   -0.0096    0.0440    0.0150    0.0138
          32   -0.0171   -0.0470   -0.0193    0.0260   -0.0516    0.0066    0.0479   -0.0640
          33    0.0069   -0.0076    0.0071    0.0070    0.0233    0.0140   -0.0031    0.0697
          34    0.0367   -0.0256    0.0115   -0.0013    0.0630   -0.0491    0.0547   -0.0471
          35   -0.0026   -0.0140    0.0199   -0.0208    0.0726   -0.0351    0.0602   -0.0781
          36   -0.0295    0.0080    0.0050   -0.0139    0.0182   -0.0001    0.0172   -0.0301
          37   -0.0477    0.0536   -0.0331    0.0324   -0.0292    0.0264   -0.0141   -0.0014
          38    0.0406    0.0060   -0.0200    0.0415   -0.0368    0.0158   -0.0435    0.0362
          39   -0.0106    0.0065   -0.0038    0.0002   -0.0044    0.0066   -0.0020   -0.0024
          40    0.0648   -0.0244   -0.0667    0.0018   -0.0100   -0.0129   -0.0339   -0.0294
          41    0.0005   -0.0528   -0.0160    0.0309   -0.0212   -0.0012   -0.0142    0.0116
          42    0.0362    0.0184   -0.0322   -0.0206    0.0075   -0.0155   -0.0237   -0.0286
          43   -0.0203    0.0182    0.0220   -0.0170   -0.0014   -0.0088   -0.0092    0.0024
          44   -0.0487    0.0587    0.0337   -0.0245    0.0967    0.0786   -0.0364    0.0169
          45   -0.0812    0.0298    0.0888   -0.0304   -0.0561   -0.0730    0.0126    0.0144
          46   -0.0149   -0.0256   -0.0702   -0.0323   -0.0367   -0.0559   -0.0910   -0.0599
          47   -0.0691   -0.0612   -0.0083    0.0212   -0.0209   -0.0089   -0.0118   -0.0204
          48    0.0279    0.0260   -0.0277   -0.0294    0.0013   -0.0147   -0.0360   -0.0098
          49    0.0569    0.0396    0.0237    0.0178   -0.0921    0.0191    0.1406    0.0350
          50    0.0318    0.0261   -0.0007   -0.0186    0.0023   -0.0193   -0.0197   -0.0034
          51   -0.0960   -0.0780    0.0000    0.0507   -0.0246    0.0440    0.0571    0.0100
          52    0.0213   -0.0045   -0.0079    0.0105    0.0756   -0.0434    0.0453   -0.0580
          53   -0.0054    0.0140   -0.0132    0.0183    0.0212   -0.0175    0.0126   -0.0142
          54   -0.0248    0.0248   -0.0138    0.0182   -0.0176    0.0058   -0.0136    0.0153
          55    0.0548   -0.0775    0.0760   -0.1082   -0.0584    0.0817   -0.0633    0.0373
          56   -0.0034    0.0089   -0.0119    0.0138    0.0192   -0.0223    0.0188   -0.0150
          57   -0.0271    0.0324   -0.0184    0.0285   -0.0088    0.0027   -0.0092    0.0098
          58   -0.0590    0.0806   -0.0497    0.0666   -0.0311    0.0000   -0.0506    0.0466
          59   -0.0065    0.0193   -0.0150    0.0256    0.0188   -0.0207    0.0141   -0.0143
          60   -0.0148    0.0136   -0.0079    0.0079   -0.0081    0.0049   -0.0084    0.0076
          61    0.0079   -0.0245   -0.0154    0.0533    0.0103    0.1076   -0.0152   -0.0022
          62   -0.0371    0.0362   -0.0684   -0.0636    0.0008    0.0514    0.0351    0.0333
          63    0.0012    0.0419   -0.0677   -0.0776    0.0355   -0.0078    0.0513    0.0451
          64   -0.0324   -0.0289   -0.0156   -0.0251    0.0355   -0.0150   -0.0031    0.0207
          65    0.0542    0.0523    0.0506    0.0578    0.0254    0.0787   -0.0235   -0.0556
          66    0.0511    0.0557    0.1150    0.0932   -0.0435   -0.0006   -0.0019   -0.0392
          67    0.0036    0.0011   -0.0009   -0.0010   -0.0008   -0.0015   -0.0002   -0.0023
          68    0.0020   -0.0097    0.0164   -0.0011    0.0008   -0.0213   -0.0101    0.0225
          69   -0.0081    0.0170   -0.0218   -0.0012   -0.0102    0.0209    0.0158   -0.0441


   Root No.      25        26        27        28        29        30        31        32

                25 A      26 A      27 A      28 A      29 A      30 A      31 A      32 A   

                1079.6    1087.1    1095.9    1121.7    1130.4    1134.1    1143.3    1148.4
  
           1    0.0004    0.0289   -0.0157   -0.0077    0.0031   -0.0146   -0.0061    0.0006
           2    0.0041    0.0083   -0.0136    0.0073   -0.0106   -0.0119   -0.0057   -0.0129
           3    0.0069    0.0034   -0.0020    0.0133   -0.0187   -0.0008   -0.0027   -0.0149
           4    0.0084   -0.0250   -0.0022    0.0049   -0.0137    0.0093   -0.0009   -0.0160
           5    0.0083   -0.0042   -0.0166   -0.0128    0.0065   -0.0013   -0.0304   -0.0025
           6    0.0210    0.0010   -0.0011   -0.0043    0.0028   -0.0032   -0.0167   -0.0004
           7   -0.0057    0.0046    0.0077   -0.0043    0.0040    0.0024    0.0012    0.0076
           8   -0.0025    0.0144    0.0027    0.0186    0.0038   -0.0006    0.0259    0.0057
           9   -0.0112   -0.0095    0.0198    0.0178    0.0036   -0.0258    0.0059   -0.0093
          10    0.0098   -0.0009   -0.0088   -0.0232   -0.0020   -0.0242    0.0255   -0.0102
          11    0.0019    0.0007    0.0155   -0.0061    0.0133    0.0096   -0.0013    0.0157
          12   -0.0046   -0.0057    0.0078   -0.0116    0.0312    0.0135    0.0019   -0.0062
          13    0.0141   -0.0051   -0.0048    0.0115    0.0043   -0.0038    0.0054    0.0021
          14    0.0015   -0.0039    0.0029   -0.0052   -0.0035   -0.0006   -0.0057   -0.0036
          15    0.0014    0.0144   -0.0046   -0.0107   -0.0079    0.0236    0.0072    0.0063
          16   -0.0096    0.0016    0.0076    0.0252    0.0004    0.0227   -0.0247    0.0101
          17   -0.0010   -0.0065   -0.0075    0.0003   -0.0027   -0.0025    0.0075   -0.0126
          18    0.0049    0.0002   -0.0014    0.0004   -0.0234   -0.0153    0.0007    0.0166
          19   -0.0071   -0.0051    0.0047   -0.0043    0.0013    0.0039   -0.0003    0.0014
          20   -0.0093   -0.0028    0.0020   -0.0049   -0.0009   -0.0032   -0.0015   -0.0011
          21   -0.0051   -0.0124   -0.0029   -0.0008   -0.0001    0.0072    0.0064    0.0044
          22   -0.0166    0.0026    0.0019   -0.0067    0.0005   -0.0094   -0.0060   -0.0048
          23    0.0106    0.0026   -0.0010    0.0001    0.0007    0.0012    0.0002   -0.0005
          24    0.0027    0.0020   -0.0051   -0.0034   -0.0001   -0.0047   -0.0068   -0.0023
          25   -0.0061   -0.0031   -0.0008   -0.0012   -0.0012    0.0024    0.0000   -0.0006
          26    0.0076   -0.0040    0.0052    0.0016   -0.0038   -0.0009   -0.0016   -0.0043
          27   -0.0280    0.0035   -0.0111   -0.0028    0.0052    0.0018    0.0055    0.0083
          28   -0.0440    0.1531    0.0225    0.0436    0.0249   -0.0391   -0.0669    0.0394
          29   -0.0483   -0.0636   -0.0613    0.0715   -0.1117    0.0150    0.0028   -0.0091
          30    0.0071    0.0711    0.0270    0.0129    0.0209   -0.0170   -0.0283   -0.0018
          31    0.0955   -0.0949    0.1268   -0.0131   -0.0303    0.0309   -0.0445   -0.0018
          32   -0.1613   -0.0880   -0.0516   -0.0608   -0.0053    0.0563   -0.0356    0.0381
          33    0.1668    0.0227    0.0778    0.0202    0.0033   -0.0305   -0.0339   -0.0204
          34    0.0256   -0.0052    0.0040   -0.0408    0.0765    0.0243    0.0990   -0.1068
          35    0.0201    0.0098    0.0261    0.0061    0.0279    0.0395    0.0351   -0.0266
          36    0.0047    0.0084    0.0110    0.0151   -0.0094    0.0117   -0.0092    0.0144
          37    0.0208   -0.0420    0.0308   -0.0982   -0.0624   -0.1077    0.0718    0.1187
          38   -0.0060   -0.0514    0.0549   -0.0894    0.0495   -0.0139    0.0374    0.0913
          39    0.0012   -0.0029    0.0086   -0.0099    0.0050   -0.0026    0.0035    0.0091
          40   -0.0004   -0.0153    0.0246    0.0452   -0.0003   -0.0232    0.0347   -0.0101
          41   -0.0408    0.0840    0.0903    0.0149   -0.0869    0.1134    0.1333   -0.0014
          42    0.0137   -0.0574   -0.0252    0.0397    0.0558   -0.1030   -0.0446   -0.0116
          43   -0.0034    0.0018    0.0062   -0.0006    0.0053    0.0016    0.0031    0.0083
          44    0.0239   -0.0058   -0.0846    0.0577    0.0878   -0.0250    0.0367    0.0814
          45   -0.0304    0.0224    0.0675   -0.0474   -0.0388    0.0151   -0.0249   -0.0271
          46    0.1455    0.0052   -0.0907   -0.0250   -0.0065    0.0929   -0.0012    0.0403
          47   -0.0250   -0.0197    0.0302    0.0558    0.0181   -0.0566    0.0217   -0.0116
          48    0.0947    0.0274   -0.0683   -0.0576   -0.0236    0.1066   -0.0076    0.0333
          49    0.0403   -0.0474   -0.0260    0.1070    0.0301    0.0341    0.0742    0.0528
          50   -0.0038    0.0090    0.0077   -0.0327   -0.0125   -0.0068   -0.0230   -0.0168
          51    0.0104   -0.0242   -0.0127    0.0956    0.0323    0.0140    0.0674    0.0423
          52    0.0008    0.0240    0.0435    0.0466   -0.0360    0.0256   -0.0659    0.0953
          53    0.0004    0.0038    0.0159    0.0030    0.0084    0.0129   -0.0099    0.0159
          54   -0.0037   -0.0058   -0.0007   -0.0148    0.0244    0.0040    0.0114   -0.0195
          55   -0.0237   -0.0259   -0.0291    0.0410   -0.0451    0.0004   -0.0149   -0.0264
          56    0.0082    0.0066    0.0076   -0.0002   -0.0009    0.0006    0.0007    0.0169
          57   -0.0041   -0.0051    0.0048   -0.0180    0.0278    0.0053    0.0077   -0.0177
          58   -0.0372   -0.0082    0.0285    0.0127    0.1121    0.0940   -0.0317   -0.0459
          59    0.0040    0.0049    0.0154   -0.0013    0.0093    0.0092   -0.0045    0.0209
          60   -0.0037   -0.0044    0.0024   -0.0044    0.0093    0.0041    0.0006   -0.0039
          61   -0.0268    0.0970   -0.0211   -0.0340   -0.0238   -0.0170    0.0121   -0.0471
          62   -0.0229    0.0550   -0.0033   -0.0174   -0.0168    0.0003    0.0143   -0.0251
          63   -0.0232   -0.0086    0.0064   -0.0023   -0.0012    0.0005   -0.0038    0.0021
          64   -0.0164   -0.0113    0.0056   -0.0077    0.0023    0.0058   -0.0006    0.0050
          65   -0.0309   -0.0146    0.0489   -0.0024   -0.0094    0.0029   -0.0538    0.0054
          66    0.0419    0.0283   -0.0302    0.0099   -0.0007   -0.0067    0.0309   -0.0155
          67   -0.0048   -0.0032   -0.0001   -0.0011   -0.0013    0.0020   -0.0002   -0.0006
          68   -0.0014    0.0314    0.0079    0.0001    0.0241   -0.0219    0.0049    0.0299
          69   -0.0222   -0.0503   -0.0156   -0.0029   -0.0392    0.0339   -0.0068   -0.0467


   Root No.      33        34        35        36        37        38        39        40

                33 A      34 A      35 A      36 A      37 A      38 A      39 A      40 A   

                1179.8    1194.6    1232.3    1259.9    1278.4    1340.5    1350.7    1360.4
  
           1   -0.0217   -0.0021    0.0086    0.0255    0.0211   -0.0161    0.0281    0.0141
           2   -0.0014   -0.0183    0.0306   -0.0278    0.0048   -0.0388   -0.0187   -0.0186
           3    0.0068    0.0063    0.0046    0.0102    0.0116    0.0047    0.0221    0.0160
           4   -0.0184   -0.0127   -0.0075    0.0118   -0.0109   -0.0096    0.0017   -0.0027
           5    0.0010   -0.0109   -0.0224   -0.0360   -0.0039    0.0013   -0.0139    0.0367
           6   -0.0040    0.0032    0.0015    0.0552   -0.0153   -0.0007    0.0098   -0.0324
           7    0.0085    0.0075   -0.0004    0.0033    0.0056    0.0013   -0.0019   -0.0034
           8   -0.0041    0.0009   -0.0104   -0.0314    0.0144    0.0112    0.0310   -0.0199
           9   -0.0079    0.0011    0.0031    0.0177   -0.0045   -0.0077   -0.0191    0.0154
          10    0.0073   -0.0092    0.0079    0.0081    0.0188    0.0413   -0.0159   -0.0022
          11   -0.0160    0.0088   -0.0021    0.0105    0.0097    0.0322   -0.0059    0.0013
          12   -0.0094   -0.0037    0.0031   -0.0026    0.0000    0.0007   -0.0044   -0.0035
          13   -0.0021    0.0035    0.0085    0.0011   -0.0140    0.0145    0.0263    0.0282
          14   -0.0030    0.0083    0.0001    0.0157    0.0004   -0.0048   -0.0061   -0.0093
          15    0.0046   -0.0097    0.0075   -0.0080   -0.0095    0.0091    0.0121    0.0252
          16   -0.0127    0.0093    0.0034   -0.0086   -0.0082    0.0080   -0.0037   -0.0033
          17    0.0121   -0.0024   -0.0021   -0.0026   -0.0037   -0.0071    0.0009   -0.0008
          18    0.0004    0.0016   -0.0016   -0.0019   -0.0034   -0.0033    0.0018   -0.0004
          19    0.0078   -0.0039   -0.0037   -0.0180    0.0019   -0.0051   -0.0188   -0.0065
          20   -0.0005   -0.0090    0.0063    0.0023   -0.0079    0.0069    0.0121   -0.0042
          21   -0.0021    0.0106   -0.0102   -0.0032    0.0060   -0.0036   -0.0136    0.0024
          22    0.0020   -0.0136    0.0100   -0.0061   -0.0097    0.0029    0.0053   -0.0152
          23    0.0036    0.0018    0.0010    0.0009   -0.0059    0.0082    0.0087    0.0076
          24   -0.0004   -0.0062    0.0027   -0.0029    0.0026   -0.0067   -0.0059   -0.0116
          25    0.0002   -0.0022   -0.0039   -0.0133   -0.0027    0.0045   -0.0061    0.0013
          26   -0.0050    0.0005    0.0017    0.0211   -0.0070    0.0012    0.0005   -0.0115
          27    0.0080    0.0003    0.0007   -0.0299    0.0116   -0.0029   -0.0017    0.0167
          28    0.1601   -0.0343   -0.0665    0.0291   -0.0765    0.0419   -0.0499   -0.0518
          29    0.0759    0.0589   -0.0711    0.0449    0.0011    0.0606    0.0208    0.0331
          30    0.0512   -0.0268    0.0079   -0.0098   -0.0224   -0.0024   -0.0182   -0.0232
          31    0.1278    0.0937    0.0973   -0.0715    0.0534    0.0033   -0.0012    0.0079
          32    0.0703    0.0677    0.0768    0.0715    0.0067   -0.0036    0.0205   -0.0566
          33    0.0175    0.0005   -0.0163   -0.0490    0.0042    0.0099   -0.0143    0.0286
          34    0.1037    0.0197   -0.0591    0.0305   -0.0377   -0.0840    0.0507    0.0052
          35    0.0477    0.0487   -0.0603    0.0352   -0.0338   -0.0254    0.0526    0.0309
          36   -0.0050    0.0198   -0.0146    0.0103   -0.0078    0.0229    0.0147    0.0228
          37    0.0168   -0.0068   -0.0567   -0.0113   -0.0523   -0.0971    0.0260   -0.0077
          38   -0.0359    0.0056   -0.0435   -0.0191   -0.0513   -0.0352    0.0122    0.0113
          39   -0.0025   -0.0015   -0.0027   -0.0002   -0.0028   -0.0173    0.0027   -0.0062
          40   -0.0127    0.0033   -0.0009    0.0034    0.0143   -0.0107   -0.0302   -0.0665
          41   -0.0135   -0.0619    0.0477    0.0582   -0.0265   -0.0225   -0.0635    0.0397
          42   -0.0102    0.0360   -0.0324   -0.0349    0.0236    0.0070    0.0228   -0.0493
          43    0.0085    0.0075    0.0011    0.0056    0.0047    0.0006   -0.0040   -0.0025
          44    0.0520    0.0206    0.0629    0.1054   -0.0401   -0.0022   -0.0734    0.0261
          45   -0.0050    0.0101   -0.0405   -0.0462    0.0508   -0.0077   -0.0027   -0.1159
          46    0.0153    0.0038   -0.0222    0.0265    0.0364   -0.0354   -0.0647   -0.0173
          47   -0.0163    0.0222    0.0031    0.0326   -0.0055   -0.0270   -0.0794    0.0918
          48    0.0209   -0.0168   -0.0136   -0.0017    0.0250   -0.0111   -0.0093   -0.0503
          49   -0.0040    0.0038   -0.0345    0.0215    0.0518   -0.0451   -0.0862   -0.0126
          50   -0.0033    0.0123    0.0126    0.0205   -0.0177    0.0034    0.0033    0.0191
          51    0.0054   -0.0326   -0.0318   -0.0641    0.0433    0.0191    0.0707   -0.1231
          52   -0.0514    0.0288   -0.0124   -0.0007   -0.0122   -0.0679    0.0309    0.0189
          53   -0.0107    0.0047   -0.0080    0.0060    0.0025   -0.0191    0.0076    0.0103
          54    0.0037   -0.0083    0.0018    0.0053    0.0109    0.0338   -0.0150   -0.0011
          55    0.0459   -0.0154   -0.0257   -0.0073   -0.0219   -0.1054    0.0343    0.0124
          56   -0.0129    0.0151    0.0074   -0.0088   -0.0111    0.0237   -0.0053   -0.0082
          57    0.0001   -0.0159    0.0006    0.0145    0.0284    0.0272   -0.0174    0.0051
          58   -0.0177    0.0003   -0.0083    0.0010   -0.0100   -0.0794    0.0331    0.0104
          59   -0.0157    0.0141   -0.0010   -0.0059   -0.0153    0.0007    0.0062   -0.0019
          60    0.0010   -0.0035   -0.0042    0.0015   -0.0008   -0.0235    0.0090    0.0033
          61   -0.0519    0.1903   -0.0570    0.0018    0.0326   -0.0341   -0.0672   -0.0210
          62   -0.0267    0.1149   -0.0335    0.0048    0.0146   -0.0113   -0.0291    0.0069
          63    0.0050   -0.0298    0.0137   -0.0070   -0.0053   -0.0031    0.0030   -0.0110
          64    0.0064   -0.0048   -0.0106   -0.0107    0.0083   -0.0058   -0.0199   -0.0045
          65    0.0367   -0.1118   -0.0756    0.1191    0.1394   -0.0236   -0.0074    0.0388
          66   -0.0138    0.0664    0.0607   -0.0969   -0.0945    0.0104   -0.0029   -0.0306
          67    0.0003   -0.0017   -0.0028   -0.0114   -0.0019    0.0033   -0.0052    0.0009
          68    0.0323    0.0272    0.0434    0.0155    0.0568   -0.0458    0.0326    0.0263
          69   -0.0519   -0.0407   -0.0653   -0.0166   -0.0873    0.0695   -0.0498   -0.0467


   Root No.      41        42        43        44        45        46        47        48

                41 A      42 A      43 A      44 A      45 A      46 A      47 A      48 A   

                1390.1    1392.8    1404.7    1410.2    1410.9    1416.8    1436.0    1440.1
  
           1    0.0029   -0.0067    0.0249    0.0049    0.0033    0.0101    0.0272   -0.0047
           2    0.0034    0.0104    0.0008    0.0112    0.0049    0.0146   -0.0093    0.0269
           3    0.0042   -0.0057    0.0076   -0.0057   -0.0022   -0.0039    0.0141   -0.0160
           4    0.0109    0.0077   -0.0328   -0.0150   -0.0075   -0.0288   -0.0214    0.0041
           5    0.0084   -0.0187   -0.0052   -0.0049   -0.0017   -0.0088    0.0051   -0.0083
           6   -0.0041    0.0157   -0.0036   -0.0001   -0.0006   -0.0035   -0.0109    0.0099
           7   -0.0050    0.0098   -0.0078    0.0038    0.0008    0.0131    0.0112   -0.0124
           8   -0.0155    0.0302    0.0059    0.0019    0.0005    0.0036   -0.0051    0.0066
           9    0.0039   -0.0036   -0.0232    0.0050    0.0009    0.0155    0.0143   -0.0169
          10    0.0009    0.0008   -0.0014   -0.0114   -0.0082    0.0118   -0.0320   -0.0156
          11   -0.0292   -0.0126   -0.0095   -0.0010    0.0054   -0.0111   -0.0025   -0.0097
          12   -0.0083   -0.0018   -0.0035    0.0011    0.0026   -0.0030    0.0014    0.0030
          13   -0.0020   -0.0137   -0.0032    0.0156    0.0082    0.0057   -0.0247    0.0439
          14    0.0097   -0.0172   -0.0151    0.0049    0.0017    0.0079    0.0038   -0.0038
          15   -0.0121    0.0152    0.0184   -0.0015    0.0005   -0.0098   -0.0146    0.0213
          16    0.0160    0.0096   -0.0053    0.0069    0.0008   -0.0147    0.0377    0.0269
          17    0.0020    0.0016    0.0007    0.0163   -0.0246   -0.0037    0.0016    0.0007
          18   -0.0074   -0.0047   -0.0014   -0.0165   -0.0172    0.0072    0.0012    0.0053
          19   -0.0021    0.0047   -0.0050    0.0019    0.0006    0.0028   -0.0084    0.0114
          20    0.0009    0.0021    0.0061   -0.0079   -0.0035   -0.0072    0.0115   -0.0227
          21   -0.0019   -0.0007   -0.0058    0.0063    0.0032    0.0055   -0.0112    0.0199
          22    0.0044    0.0017    0.0045   -0.0126   -0.0063   -0.0093    0.0187   -0.0368
          23   -0.0002   -0.0017    0.0011   -0.0020   -0.0009   -0.0032    0.0007   -0.0027
          24    0.0020    0.0015   -0.0002   -0.0021   -0.0013    0.0003    0.0055   -0.0093
          25   -0.0034   -0.0032    0.0081    0.0046    0.0023    0.0081    0.0043   -0.0004
          26   -0.0028    0.0036    0.0025    0.0024    0.0010    0.0039   -0.0001    0.0017
          27    0.0044   -0.0053   -0.0048   -0.0035   -0.0014   -0.0052    0.0007   -0.0031
          28   -0.0080    0.0210   -0.0256   -0.0002   -0.0048   -0.0041   -0.0384    0.0108
          29   -0.0022   -0.0141   -0.0018   -0.0115   -0.0055   -0.0139    0.0053   -0.0298
          30    0.0010    0.0115   -0.0098   -0.0009   -0.0017    0.0001   -0.0141    0.0062
          31   -0.0109   -0.0050    0.0344    0.0168    0.0089    0.0361    0.0219   -0.0052
          32   -0.0132    0.0258    0.0147    0.0088    0.0039    0.0120   -0.0080    0.0171
          33   -0.0013   -0.0168    0.0149    0.0062    0.0034    0.0136    0.0161   -0.0095
          34   -0.0397   -0.0163    0.0000    0.0193    0.0270   -0.0323    0.0660    0.0188
          35    0.0968    0.0255    0.0340   -0.0109   -0.0319    0.0210    0.0129   -0.0101
          36    0.1440    0.0468    0.0399   -0.0295   -0.0574    0.0569   -0.0436   -0.0203
          37   -0.0684   -0.0229   -0.0136    0.0327    0.0334   -0.0416    0.0631    0.0294
          38    0.1503    0.0547    0.0381   -0.0114   -0.0529    0.0512   -0.0266    0.0052
          39   -0.0613   -0.0214   -0.0156    0.0131    0.0236   -0.0279    0.0292    0.0101
          40    0.0462   -0.1130    0.1135   -0.0340   -0.0074   -0.0865   -0.0432    0.0463
          41    0.0316   -0.0656   -0.0079   -0.0016    0.0001   -0.0033    0.0088   -0.0102
          42    0.0000   -0.0049    0.0428   -0.0109   -0.0027   -0.0271   -0.0184    0.0197
          43   -0.0027    0.0047   -0.0064    0.0031    0.0006    0.0105    0.0095   -0.0107
          44    0.0316   -0.1172    0.0732    0.0059    0.0079   -0.0083    0.0022    0.0202
          45    0.0310   -0.0648    0.1140   -0.0441   -0.0134   -0.0897   -0.0348    0.0258
          46   -0.0097    0.0405    0.0132   -0.0192   -0.0097   -0.0063    0.0241   -0.0412
          47   -0.0575    0.1173    0.0883   -0.0411   -0.0163   -0.0488   -0.0041   -0.0063
          48    0.0144   -0.0138   -0.0200   -0.0013   -0.0021    0.0096    0.0193   -0.0299
          49   -0.0253    0.0743    0.0396   -0.0315   -0.0151   -0.0181    0.0275   -0.0495
          50    0.0041   -0.0149   -0.0073    0.0073    0.0037    0.0029   -0.0095    0.0168
          51    0.0482   -0.0898   -0.0805    0.0342    0.0123    0.0520    0.0188   -0.0168
          52   -0.0472   -0.0293    0.0232    0.0758   -0.0048    0.0038   -0.1164   -0.1198
          53    0.0189    0.0097    0.0167    0.0529    0.1631   -0.0147   -0.0678   -0.0788
          54    0.0646    0.0369    0.0016    0.0010    0.2369   -0.0251    0.0143   -0.0018
          55   -0.0117   -0.0120    0.0227   -0.0250    0.1102    0.0346   -0.0876   -0.0684
          56   -0.0105   -0.0059   -0.0149   -0.0600   -0.0665    0.0090    0.0527    0.0554
          57    0.0522    0.0355    0.0129    0.2039    0.0274   -0.0726   -0.0198   -0.0551
          58   -0.0773   -0.0481    0.0099   -0.0644   -0.0863    0.0559   -0.0731   -0.0424
          59    0.0017   -0.0044   -0.0075   -0.1796    0.2075    0.0442    0.0106    0.0274
          60   -0.0261   -0.0156    0.0038   -0.0042   -0.0554    0.0155   -0.0268   -0.0165
          61    0.0050   -0.0112   -0.0281    0.0166    0.0069    0.0200   -0.0142    0.0230
          62    0.0002   -0.0083   -0.0161    0.0141    0.0069    0.0121   -0.0183    0.0313
          63    0.0017    0.0048    0.0049   -0.0057   -0.0024   -0.0041    0.0086   -0.0161
          64   -0.0023    0.0046   -0.0042    0.0036    0.0026    0.0045   -0.0089    0.0147
          65   -0.0008   -0.0014    0.0064    0.0083    0.0009    0.0350    0.0047    0.0927
          66   -0.0011    0.0031   -0.0066   -0.0078   -0.0078   -0.0225   -0.0050   -0.0580
          67   -0.0026   -0.0023    0.0057    0.0034    0.0017    0.0059    0.0028   -0.0001
          68    0.0347    0.0123   -0.0728   -0.0394   -0.0189   -0.0668   -0.0304   -0.0032
          69   -0.0538   -0.0169    0.1134    0.0610    0.0291    0.1038    0.0467    0.0048


   Root No.      49        50        51        52        53        54        55        56

                49 A      50 A      51 A      52 A      53 A      54 A      55 A      56 A   

                1888.2    2827.8    2859.0    2944.2    2958.4    2962.1    2990.1    3025.5
  
           1    0.0041   -0.0018    0.0200    0.0001    0.0006    0.0002   -0.0006    0.0000
           2   -0.0285    0.0020   -0.0160    0.0001   -0.0005    0.0002    0.0003   -0.0001
           3    0.0223    0.0075   -0.0554    0.0000   -0.0021    0.0000    0.0002    0.0000
           4    0.0012    0.0216    0.0039   -0.0003    0.0000   -0.0007    0.0003    0.0000
           5    0.0044   -0.0309   -0.0041    0.0005    0.0002    0.0008   -0.0002    0.0003
           6   -0.0024   -0.0503   -0.0068    0.0002    0.0001    0.0013    0.0002   -0.0002
           7   -0.0035   -0.0022   -0.0004   -0.0114    0.0005   -0.0375    0.0002    0.0028
           8   -0.0029    0.0002    0.0000    0.0046   -0.0002    0.0132    0.0000    0.0031
           9    0.0005    0.0013    0.0001    0.0075   -0.0003    0.0214   -0.0001    0.0064
          10    0.0007    0.0004   -0.0001    0.0000   -0.0046   -0.0001    0.0000    0.0000
          11   -0.0028    0.0003   -0.0013    0.0000    0.0126    0.0001    0.0004    0.0000
          12    0.0011   -0.0008    0.0028    0.0002   -0.0513   -0.0006   -0.0030    0.0000
          13    0.0341    0.0001    0.0000    0.0113    0.0001   -0.0028    0.0001   -0.0184
          14    0.0119   -0.0002    0.0000   -0.0349   -0.0003    0.0114   -0.0003   -0.0222
          15    0.0015   -0.0001    0.0001   -0.0279   -0.0002    0.0078    0.0001    0.0166
          16    0.0001    0.0000   -0.0002    0.0000    0.0007    0.0000   -0.0027    0.0000
          17   -0.0003    0.0000    0.0000    0.0000   -0.0015    0.0000    0.0083    0.0001
          18    0.0003    0.0001   -0.0004    0.0000    0.0035    0.0000   -0.0064   -0.0001
          19    0.1024    0.0001   -0.0009    0.0000    0.0017   -0.0002   -0.0505    0.0000
          20    0.1932   -0.0001    0.0006   -0.0002   -0.0002    0.0000   -0.0089   -0.0001
          21   -0.1184    0.0000   -0.0007   -0.0001    0.0004    0.0000   -0.0090    0.0000
          22   -0.1622    0.0000   -0.0002    0.0001   -0.0001    0.0001    0.0054   -0.0026
          23   -0.1677    0.0000   -0.0004    0.0005    0.0000   -0.0001   -0.0020    0.0036
          24    0.0816    0.0000    0.0000   -0.0004   -0.0001    0.0002    0.0033   -0.0037
          25   -0.0010   -0.0006    0.0004    0.0000    0.0000   -0.0001    0.0000    0.0000
          26   -0.0005   -0.0002   -0.0002    0.0000    0.0000    0.0000    0.0000    0.0001
          27    0.0007    0.0008    0.0001    0.0000    0.0000    0.0000    0.0000    0.0000
[...]
 FREQ.      1392.76        C  3 --  H 15          +13.9% ( 43.1%)     2.0%
 T-DIPOLE    0.1348        C  3 --  H 14          +13.3% ( 42.2%)     1.7%
 TRAVEL      0.1093        C  5 --  H 16          +10.9% ( 38.2%)     4.5%
 RED. MASS   0.3460        C  3 --  C  5           +9.7% ( 36.0%)    31.3%
 EFF. MASS   4.0548

 VIBRATION   43   43A       ATOM PAIR        ENERGY CONTRIBUTION    RADIAL
 FREQ.      1404.73        C  3 --  H 15          +10.8% ( 38.7%)     2.2%
 T-DIPOLE    0.1796        O  9 --  H 23          +10.3% ( 37.8%)     4.0%
 TRAVEL      0.1045        C  1 --  C  2          +10.2% ( 37.5%)    95.4%
 RED. MASS   0.3778        C  3 --  H 14           +9.2% ( 35.6%)     5.3%
 EFF. MASS   4.3923

 VIBRATION   44   44A       ATOM PAIR        ENERGY CONTRIBUTION    RADIAL
 FREQ.      1410.24        C  6 --  H 19          +27.4% ( 51.7%)     1.4%
 T-DIPOLE    0.1275        C  6 --  H 20          +22.3% ( 46.6%)     3.7%
 TRAVEL      0.1350        C  6 --  H 18           +6.5% ( 25.2%)    51.0%
 RED. MASS   0.2741        C  4 --  C  6           +4.6% ( 21.2%)    45.3%
 EFF. MASS   2.6218

 VIBRATION   45   45A       ATOM PAIR        ENERGY CONTRIBUTION    RADIAL
 FREQ.      1410.88        C  6 --  H 18          +43.9% ( 59.0%)     0.6%
 T-DIPOLE    0.0417        C  6 --  H 20          +28.3% ( 47.4%)     3.9%
 TRAVEL      0.1648        C  6 --  H 19           +9.6% ( 27.6%)    36.0%
 RED. MASS   0.3544        C  4 --  C  6           +5.3% ( 20.5%)     6.9%
 EFF. MASS   1.7595

 VIBRATION   46   46A       ATOM PAIR        ENERGY CONTRIBUTION    RADIAL
 FREQ.      1416.79        O  9 --  H 23          +10.9% ( 38.5%)     4.2%
 T-DIPOLE    0.1730        C  2 --  C  3           +8.1% ( 33.3%)    30.1%
 TRAVEL      0.1043        C  1 --  C  2           +7.7% ( 32.4%)    73.6%
 RED. MASS   0.3044        C  3 --  H 14           +7.1% ( 31.0%)     4.3%
 EFF. MASS   4.3791

 VIBRATION   47   47A       ATOM PAIR        ENERGY CONTRIBUTION    RADIAL
 FREQ.      1436.01        C  6 --  H 18          +10.7% ( 44.5%)     3.8%
 T-DIPOLE    0.1303        C  4 --  C  6          +10.2% ( 43.5%)    99.0%
 TRAVEL      0.0835        C  6 --  H 19           +7.6% ( 37.5%)     4.3%
 RED. MASS   0.5899        C  1 --  C  4           +6.6% ( 35.0%)     8.3%
 EFF. MASS   6.7311

 VIBRATION   48   48A       ATOM PAIR        ENERGY CONTRIBUTION    RADIAL
 FREQ.      1440.11        C  5 --  C  8          +14.9% ( 53.5%)    94.9%
 T-DIPOLE    0.1832        C  3 --  C  5           +8.7% ( 40.8%)    60.1%
 TRAVEL      0.0797        C  1 --  C  7           +8.1% ( 39.4%)    96.9%
 RED. MASS   0.8306        C  6 --  H 18           +7.4% ( 37.7%)     3.9%
 EFF. MASS   7.3633

 VIBRATION   49   49A       ATOM PAIR        ENERGY CONTRIBUTION    RADIAL
 FREQ.      1888.18        C  7 --  C  8          +44.3% ( 98.2%)   100.0%
 T-DIPOLE    0.1009        C  1 --  C  7          +14.4% ( 56.0%)    52.8%
 TRAVEL      0.0548        C  5 --  C  8          +14.0% ( 55.2%)    52.1%
 RED. MASS   5.4213        C  7 --  H 22          +13.3% ( 53.8%)     5.1%
 EFF. MASS  11.8740        C  8 --  H 21          +12.9% ( 53.0%)     4.5%

 VIBRATION   50   50A       ATOM PAIR        ENERGY CONTRIBUTION    RADIAL
 FREQ.      2827.81        C  2 --  H 11          +94.8% ( 99.0%)    99.9%
 T-DIPOLE    0.1158        C  1 --  H 10           +1.7% ( 13.4%)    99.7%
 TRAVEL      0.1280        C  1 --  C  2           +1.1% ( 10.8%)    11.1%
 RED. MASS   0.8944        C  2 --  C  3           +1.1% ( 10.5%)    10.4%
 EFF. MASS   1.4548

 VIBRATION   51   51A       ATOM PAIR        ENERGY CONTRIBUTION    RADIAL
 FREQ.      2858.99        C  1 --  H 10          +95.2% ( 99.0%)   100.0%
 T-DIPOLE    0.1291        C  2 --  H 11           +1.7% ( 13.2%)    99.5%
 TRAVEL      0.1284        C  1 --  C  4           +1.0% ( 10.0%)     8.8%
 RED. MASS   0.8934        C  1 --  C  7           +1.0% ( 10.0%)     7.5%
 EFF. MASS   1.4310

 VIBRATION   52   52A       ATOM PAIR        ENERGY CONTRIBUTION    RADIAL
 FREQ.      2944.16        C  5 --  H 16          +54.4% ( 76.7%)    97.5%
 T-DIPOLE    0.0178        C  5 --  H 17          +34.5% ( 61.0%)    95.0%
 TRAVEL      0.1219        C  3 --  H 14           +5.1% ( 23.4%)    96.9%
 RED. MASS   0.4543        C  3 --  H 15           +3.7% ( 19.8%)    95.2%
 EFF. MASS   1.5416

 VIBRATION   53   53A       ATOM PAIR        ENERGY CONTRIBUTION    RADIAL
 FREQ.      2958.36        C  4 --  H 13          +53.9% ( 76.2%)    97.1%
 T-DIPOLE    0.0583        C  4 --  H 12          +42.9% ( 68.0%)    95.8%
 TRAVEL      0.1215        C  4 --  C  6           +1.2% ( 11.3%)     0.0%
 RED. MASS   0.5154        C  1 --  C  4           +1.1% ( 11.1%)     0.0%
 EFF. MASS   1.5443

 VIBRATION   54   54A       ATOM PAIR        ENERGY CONTRIBUTION    RADIAL
 FREQ.      2962.14        C  3 --  H 15          +45.9% ( 70.2%)    96.7%
 T-DIPOLE    0.0676        C  3 --  H 14          +43.1% ( 68.1%)    96.4%
 TRAVEL      0.1217        C  5 --  H 17           +4.4% ( 21.8%)    96.9%
 RED. MASS   0.4331        C  5 --  H 16           +4.2% ( 21.3%)    96.8%
 EFF. MASS   1.5374

 VIBRATION   55   55A       ATOM PAIR        ENERGY CONTRIBUTION    RADIAL
 FREQ.      2990.12        C  7 --  H 22          +90.3% ( 96.7%)   100.0%
 T-DIPOLE    0.3561        C  6 --  H 18           +4.0% ( 20.3%)    99.6%
 TRAVEL      0.1224        C  8 --  H 21           +2.1% ( 14.9%)    98.0%
 RED. MASS   0.8115        C  7 --  C  8           +1.4% ( 12.1%)    27.1%
 EFF. MASS   1.5051

 VIBRATION   56   56A       ATOM PAIR        ENERGY CONTRIBUTION    RADIAL
 FREQ.      3025.53        C  5 --  H 17          +55.8% ( 73.8%)    98.7%
 T-DIPOLE    0.0579        C  5 --  H 16          +36.7% ( 59.8%)    96.1%
 TRAVEL      0.1317        C  3 --  H 14           +3.0% ( 17.2%)    98.9%
 RED. MASS   0.4436        C  8 --  H 21           +1.6% ( 12.5%)   100.0%
 EFF. MASS   1.2851

 VIBRATION   57   57A       ATOM PAIR        ENERGY CONTRIBUTION    RADIAL
 FREQ.      3035.78        C  4 --  H 12          +50.5% ( 70.3%)    98.2%
 T-DIPOLE    0.0761        C  4 --  H 13          +41.2% ( 63.5%)    97.0%
 TRAVEL      0.1312        C  6 --  H 18           +5.1% ( 22.3%)    99.0%
 RED. MASS   0.4288        C  6 --  H 19           +1.1% ( 10.6%)    86.3%
 EFF. MASS   1.2901

 VIBRATION   58   58A       ATOM PAIR        ENERGY CONTRIBUTION    RADIAL
 FREQ.      3039.28        C  3 --  H 15          +47.1% ( 67.6%)    97.7%
 T-DIPOLE    0.0838        C  3 --  H 14          +47.0% ( 67.5%)    97.7%
 TRAVEL      0.1320        C  5 --  H 17           +3.0% ( 17.2%)    99.3%
 RED. MASS   0.4403        C  5 --  H 16           +1.1% ( 10.3%)    93.1%
 EFF. MASS   1.2726

 VIBRATION   59   59A       ATOM PAIR        ENERGY CONTRIBUTION    RADIAL
 FREQ.      3044.49        C  6 --  H 18          +72.7% ( 87.2%)    99.4%
 T-DIPOLE    0.0974        C  6 --  H 20          +11.4% ( 34.5%)    82.6%
 TRAVEL      0.1229        C  4 --  H 12           +4.6% ( 21.9%)    99.3%
 RED. MASS   0.5560        C  6 --  H 19           +4.2% ( 20.9%)    58.2%
 EFF. MASS   1.4662

 VIBRATION   60   60A       ATOM PAIR        ENERGY CONTRIBUTION    RADIAL
 FREQ.      3058.59        C  8 --  H 21          +91.0% ( 96.7%)   100.0%
 T-DIPOLE    0.2841        C  7 --  H 22           +2.7% ( 16.7%)    98.6%
 TRAVEL      0.1196        C  7 --  C  8           +1.7% ( 13.1%)    55.5%
 RED. MASS   0.8194        C  5 --  C  8           +1.4% ( 11.9%)    20.8%
 EFF. MASS   1.5416

 VIBRATION   61   61A       ATOM PAIR        ENERGY CONTRIBUTION    RADIAL
 FREQ.      3086.75        C  6 --  H 19          +48.5% ( 71.8%)    97.3%
 T-DIPOLE    0.0096        C  6 --  H 20          +48.2% ( 71.6%)    96.7%
 TRAVEL      0.1204        C  6 --  H 18           +1.8% ( 14.0%)    18.6%
 RED. MASS   0.4973        C  4 --  C  6           +1.0% ( 10.4%)     0.0%
 EFF. MASS   1.5059

 VIBRATION   62   62A       ATOM PAIR        ENERGY CONTRIBUTION    RADIAL
 FREQ.      3168.96        C  6 --  H 19          +46.7% ( 66.1%)    98.3%
 T-DIPOLE    0.0142        C  6 --  H 20          +39.5% ( 60.8%)    97.5%
 TRAVEL      0.1357        C  6 --  H 18          +13.3% ( 35.3%)    88.4%
 RED. MASS   0.3784        C  4 --  C  6           +0.3% (  5.5%)    83.2%
 EFF. MASS   1.1564

 VIBRATION   63   63A       ATOM PAIR        ENERGY CONTRIBUTION    RADIAL
 FREQ.      3901.74        O  9 --  H 23          +99.6% (100.0%)    99.8%
 T-DIPOLE    0.1831        C  2 --  O  9           +0.4% (  6.3%)     7.1%
 TRAVEL      0.1116
 RED. MASS   0.9481
 EFF. MASS   1.3884

 SYMMETRY NUMBER FOR POINT-GROUP C1  =  1


          SYSTEM IS A GROUND STATE


    NULL



          MOLECULE IS NOT LINEAR

          THERE ARE 63 GENUINE VIBRATIONS IN THIS SYSTEM
          THIS THERMODYNAMICS CALCULATION IS LIMITED TO
          MOLECULES WHICH HAVE NO INTERNAL ROTATIONS




                    CALCULATED THERMODYNAMIC PROPERTIES
                                          *
   TEMP. (K)   PARTITION FUNCTION   H.O.F.    ENTHALPY  HEAT CAPACITY ENTROPY
                                   KCAL/MOL   CAL/MOLE    CAL/K/MOL  CAL/K/MOL


 298.00  VIB.     0.1332D+03                  4065.6307    30.3082    23.3648
         ROT.     0.5191D+06                   888.2813     2.9808    29.1322
         INT.     0.6917D+08                  4953.9120    33.2890    52.4970
         TRA.     0.1371D+28                  1480.4688     4.9680    40.4094
         TOT.                      -54.625    6434.3809    38.2570    92.9064

 200.00  VIB.     0.1522D+02                  1680.0286    18.7267    13.8106
         ROT.     0.2854D+06                   596.1620     2.9808    27.9435
         INT.     0.4344D+07                  2276.1906    21.7076    41.7541
         TRA.     0.7536D+27                   993.6033     4.9680    38.4282
         TOT.                      -57.790    3269.7938    26.6756    80.1823

 210.00  VIB.     0.1882D+02                  1872.6632    19.8043    14.7502
         ROT.     0.3071D+06                   625.9700     2.9808    28.0889
         INT.     0.5781D+07                  2498.6332    22.7851    42.8392
         TRA.     0.8108D+27                  1043.2834     4.9680    38.6706
         TOT.                      -57.518    3541.9167    27.7531    81.5098

 220.00  VIB.     0.2333D+02                  2076.1991    20.9073    15.6969
         ROT.     0.3293D+06                   655.7781     2.9808    28.2276
         INT.     0.7684D+07                  2731.9773    23.8881    43.9245
         TRA.     0.8694D+27                  1092.9636     4.9680    38.9017
         TOT.                      -57.235    3824.9408    28.8561    82.8262

 230.00  VIB.     0.2899D+02                  2290.8959    22.0365    16.6510
         ROT.     0.3520D+06                   685.5862     2.9808    28.3601
         INT.     0.1020D+08                  2976.4821    25.0173    45.0112
         TRA.     0.9293D+27                  1142.6437     4.9680    39.1226
         TOT.                      -56.941    4119.1259    29.9853    84.1337

 240.00  VIB.     0.3608D+02                  2517.0158    23.1917    17.6132
         ROT.     0.3752D+06                   715.3943     2.9808    28.4870
         INT.     0.1354D+08                  3232.4101    26.1726    46.1002
         TRA.     0.9906D+27                  1192.3239     4.9680    39.3340
         TOT.                      -56.635    4424.7340    31.1406    85.4342

 250.00  VIB.     0.4500D+02                  2754.8137    24.3718    18.5838
         ROT.     0.3989D+06                   745.2024     2.9808    28.6087
         INT.     0.1795D+08                  3500.0162    27.3527    47.1925
         TRA.     0.1053D+28                  1242.0041     4.9680    39.5368
         TOT.                      -56.318    4742.0202    32.3207    86.7293

 260.00  VIB.     0.5622D+02                  3004.5293    25.5749    19.5630
         ROT.     0.4231D+06                   775.0105     2.9808    28.7256
         INT.     0.2379D+08                  3779.5398    28.5557    48.2886
         TRA.     0.1117D+28                  1291.6842     4.9680    39.7317
         TOT.                      -55.988    5071.2241    33.5237    88.0203

 270.00  VIB.     0.7038D+02                  3266.3801    26.7984    20.5511
         ROT.     0.4477D+06                   804.8186     2.9808    28.8381
         INT.     0.3151D+08                  4071.1988    29.7793    49.3892
         TRA.     0.1182D+28                  1341.3644     4.9680    39.9191
         TOT.                      -55.647    5412.5632    34.7473    89.3083

 280.00  VIB.     0.8826D+02                  3540.5571    28.0396    21.5481
         ROT.     0.4728D+06                   834.6267     2.9808    28.9465
         INT.     0.4173D+08                  4375.1838    31.0204    50.4946
         TRA.     0.1248D+28                  1391.0445     4.9680    40.0998
         TOT.                      -55.293    5766.2284    35.9885    90.5944

 290.00  VIB.     0.1109D+03                  3827.2211    29.2953    22.5539
         ROT.     0.4983D+06                   864.4348     2.9808    29.0511
         INT.     0.5526D+08                  4691.6559    32.2761    51.6050
         TRA.     0.1316D+28                  1440.7247     4.9680    40.2742
         TOT.                      -54.927    6132.3806    37.2441    91.8792

 300.00  VIB.     0.1395D+03                  4126.5011    30.5623    23.5684
         ROT.     0.5243D+06                   894.2429     2.9808    29.1521
         INT.     0.7316D+08                  5020.7440    33.5431    52.7205
         TRA.     0.1384D+28                  1490.4049     4.9680    40.4426
         TOT.                      -54.549    6511.1489    38.5111    93.1631

 310.00  VIB.     0.1759D+03                  4438.4935    31.8373    24.5913
         ROT.     0.5508D+06                   924.0510     2.9808    29.2499
         INT.     0.9688D+08                  5362.5445    34.8181    53.8412
         TRA.     0.1454D+28                  1540.0850     4.9680    40.6055
         TOT.                      -54.157    6902.6296    39.7861    94.4467

 320.00  VIB.     0.2221D+03                  4763.2622    33.1170    25.6223
         ROT.     0.5776D+06                   953.8591     2.9808    29.3445
         INT.     0.1283D+09                  5717.1213    36.0978    54.9668
         TRA.     0.1525D+28                  1589.7652     4.9680    40.7632
         TOT.                      -53.753    7306.8865    41.0658    95.7300

 330.00  VIB.     0.2809D+03                  5100.8395    34.3985    26.6610
         ROT.     0.6049D+06                   983.6672     2.9808    29.4362
         INT.     0.1699D+09                  6084.5067    37.3793    56.0972
         TRA.     0.1597D+28                  1639.4454     4.9680    40.9161
         TOT.                      -53.336    7723.9521    42.3473    97.0133

 340.00  VIB.     0.3559D+03                  5451.2276    35.6787    27.7069
         ROT.     0.6326D+06                  1013.4753     2.9808    29.5252
         INT.     0.2251D+09                  6464.7029    38.6595    57.2321
         TRA.     0.1670D+28                  1689.1255     4.9680    41.0644
         TOT.                      -52.906    8153.8285    43.6275    98.2965

 350.00  VIB.     0.4515D+03                  5814.4006    36.9550    28.7596
         ROT.     0.6607D+06                  1043.2834     2.9808    29.6116
         INT.     0.2983D+09                  6857.6840    39.9358    58.3712
         TRA.     0.1745D+28                  1738.8057     4.9680    41.2084
         TOT.                      -52.463    8596.4897    44.9038    99.5796

 360.00  VIB.     0.5738D+03                  6190.3066    38.2249    29.8184
         ROT.     0.6893D+06                  1073.0915     2.9808    29.6956
         INT.     0.3955D+09                  7263.3981    41.2057    59.5140
         TRA.     0.1820D+28                  1788.4859     4.9680    41.3484
         TOT.                      -52.008    9051.8840    46.1737   100.8624

 370.00  VIB.     0.7302D+03                  6578.8701    39.4862    30.8830
         ROT.     0.7182D+06                  1102.8996     2.9808    29.7773
         INT.     0.5244D+09                  7681.7697    42.4670    60.6602
         TRA.     0.1896D+28                  1838.1660     4.9680    41.4845
         TOT.                      -51.540    9519.9357    47.4350   102.1447

 380.00  VIB.     0.9306D+03                  6979.9944    40.7368    31.9526
         ROT.     0.7475D+06                  1132.7077     2.9808    29.8568
         INT.     0.6956D+09                  8112.7021    43.7176    61.8094
         TRA.     0.1974D+28                  1887.8462     4.9680    41.6170
         TOT.                      -51.059   10000.5483    48.6856   103.4264

 390.00  VIB.     0.1188D+04                  7393.5640    41.9750    33.0268
         ROT.     0.7772D+06                  1162.5158     2.9808    29.9342
         INT.     0.9231D+09                  8556.0798    44.9558    62.9610
         TRA.     0.2052D+28                  1937.5263     4.9680    41.7460
         TOT.                      -50.566   10493.6061    49.9238   104.7070

 400.00  VIB.     0.1518D+04                  7819.4471    43.1992    34.1050
         ROT.     0.8073D+06                  1192.3239     2.9808    30.0096
         INT.     0.1225D+10                  9011.7710    46.1800    64.1147
         TRA.     0.2131D+28                  1987.2065     4.9680    41.8718
         TOT.                      -50.061   10998.9775    51.1481   105.9865

   *: NOTE: HEATS OF FORMATION ARE RELATIVE TO THE
            ELEMENTS IN THEIR STANDARD STATE AT 298K
              (=  Standard Enthalpy of Formation).

            Hvib:  Zero-point energy is not included.
                   frequencies of less than zero cm-1 are not included.
            Hrot = (3/2)RT
            Htra = (3/2)RT + pV = (5/2)RT

            Heat capacity is Cp, not Cv

           For more information, see: HTTP://OpenMOPAC.net/Manual/thermochemistry.html


           FORCE CONSTANT IN CARTESIAN COORDINATES (Millidynes/A)

    ATOM   CHEMICAL       X               Y               Z
   NUMBER   SYMBOL  FORCE CONSTANT  FORCE CONSTANT  FORCE CONSTANT

      1       C        8.217687        8.448731        8.395718
      2       C        7.994361        8.061998        8.849652
      3       C        8.581896        7.770562        8.438058
      4       C        8.459663        8.070101        8.240757
      5       C        8.908768        8.495379        8.169434
      6       C        8.200821        8.410180        8.194267
      7       C       10.747685       10.324408        6.151678
      8       C       10.706980       10.152474        6.471063
      9       O       10.038366        2.314390        4.640170
     10       H        1.163103        0.952608        3.816633
     11       H        1.179950        1.632508        3.024475
     12       H        1.507532        2.643116        2.298773
     13       H        0.981894        0.941459        4.476637
     14       H        1.169285        1.709297        3.539134
     15       H        4.981113        0.745602        0.717827
     16       H        1.740254        1.125011        3.388106
     17       H        0.808700        4.778089        0.764520
     18       H        1.607416        3.146255        1.951180
     19       H        1.284835        4.321240        1.182772
     20       H        1.035105        0.724626        5.016179
     21       H        1.536161        2.403095        2.307189
     22       H        4.654326        0.770693        0.754602
     23       H        8.524671        0.300644        0.666792



 TOTAL CPU TIME:             2.98 SECONDS

 == MOPAC DONE ==
