 *******************************************************************************
 ** Site#: 14399           For non-commercial use only        Version 13.159M **
 *******************************************************************************
 ** Cite this work as: MOPAC2012, James J. P. Stewart, Stewart Computational  **
 ** Chemistry, Version 13.159M web: HTTP://OpenMOPAC.net  Days remaining:   6 **
 *******************************************************************************
 **                                                                           **
 **                                MOPAC2012                                  **
 **                                                                           **
 *******************************************************************************

                            PM3 CALCULATION RESULTS


 *******************************************************************************
 *  CALCULATION DONE:                                Mon Jun  2 11:13:53 2014  *
 *  PM3      - The PM3 Hamiltonian to be used
 *  NONR     - DO NOT USE NEWTON-RAPHSON STEP IN EF
 *  PRECISE  - CRITERIA TO BE INCREASED BY 100 TIMES
 *  NOSYM    - POINT-GROUP SYMMETRY SET TO C1
 *  T=       - A TIME OF 172800.0 SECONDS REQUESTED
 *  DUMP=N   - RESTART FILE WRITTEN EVERY  7200.000 SECONDS
 *  GNORM=   - EXIT WHEN GRADIENT NORM DROPS BELOW 0.00    
 *******************************************************************************
pm3  precise nosym gnorm=0.0 nonr
 InChI=1S/C10H12/c1-2-3-4-7-10-8-5-6-9-10/h2-10H,1H3

   ATOM   CHEMICAL          X               Y               Z
  NUMBER   SYMBOL      (ANGSTROMS)     (ANGSTROMS)     (ANGSTROMS)
 
     1       C         -1.77270000  *   0.16740000  *  -0.30610000  *
     2       C          4.47180000  *   0.13250000  *   0.48210000  *
     3       C         -2.67500000  *   0.91540000  *   0.62430000  *
     4       C         -2.54850000  *  -1.10200000  *  -0.46730000  *
     5       C         -0.43820000  *  -0.09320000  *   0.33020000  *
     6       C          3.15330000  *   0.40130000  *  -0.16750000  *
     7       C         -3.74480000  *   0.20030000  *   0.92990000  *
     8       C         -3.66500000  *  -1.07270000  *   0.24120000  *
     9       C          2.00730000  *   0.02260000  *   0.39960000  *
    10       C          0.70790000  *   0.28620000  *  -0.23820000  *
    11       H         -1.70730000  *   0.70030000  *  -1.28350000  *
    12       H          4.62320000  *  -0.96320000  *   0.61220000  *
    13       H          5.29790000  *   0.52710000  *  -0.15140000  *
    14       H          4.52310000  *   0.63290000  *   1.47570000  *
    15       H         -2.48870000  *   1.91670000  *   0.99990000  *
    16       H         -2.24670000  *  -1.94060000  *  -1.08700000  *
    17       H         -0.42120000  *  -0.61010000  *   1.28770000  *
    18       H          3.14990000  *   0.91840000  *  -1.12370000  *
    19       H         -4.54800000  *   0.52310000  *   1.58400000  *
    20       H         -4.39790000  *  -1.87130000  *   0.28850000  *
    21       H          0.68720000  *   0.80260000  *  -1.19510000  *
    22       H          2.03250000  *  -0.49360000  *   1.35680000  *
 


          CARTESIAN COORDINATES 

    NO.       ATOM         X         Y         Z

     1         C       -1.7727    0.1674   -0.3061
     2         C        4.4718    0.1325    0.4821
     3         C       -2.6750    0.9154    0.6243
     4         C       -2.5485   -1.1020   -0.4673
     5         C       -0.4382   -0.0932    0.3302
     6         C        3.1533    0.4013   -0.1675
     7         C       -3.7448    0.2003    0.9299
     8         C       -3.6650   -1.0727    0.2412
     9         C        2.0073    0.0226    0.3996
    10         C        0.7079    0.2862   -0.2382
    11         H       -1.7073    0.7003   -1.2835
    12         H        4.6232   -0.9632    0.6122
    13         H        5.2979    0.5271   -0.1514
    14         H        4.5231    0.6329    1.4757
    15         H       -2.4887    1.9167    0.9999
    16         H       -2.2467   -1.9406   -1.0870
    17         H       -0.4212   -0.6101    1.2877
    18         H        3.1499    0.9184   -1.1237
    19         H       -4.5480    0.5231    1.5840
    20         H       -4.3979   -1.8713    0.2885
    21         H        0.6872    0.8026   -1.1951
    22         H        2.0325   -0.4936    1.3568

  H: (PM3): J. J. P. STEWART, J. COMP. CHEM. 10, 209 (1989).
  C: (PM3): J. J. P. STEWART, J. COMP. CHEM. 10, 209 (1989).

           Empirical Formula: C10 H12  =    22 atoms



      MOLECULAR POINT GROUP   :   C1  


      RHF CALCULATION, NO. OF DOUBLY OCCUPIED LEVELS =   26

      Geometry optimization using EF

  GNORM HAS BEEN SET TOO LOW, RESET TO 0.01

  SPECIFY LET AS KEYWORD TO ALLOW GNORM LESS THAN 0.01

          DIAGONAL MATRIX USED AS START HESSIAN

 CYCLE:     1 TIME:   0.009 TIME LEFT:  2.00D  GRAD.:   114.755 HEAT: 61.62496
 CYCLE:     2 TIME:   0.020 TIME LEFT:  2.00D  GRAD.:    65.412 HEAT: 59.71029
 CYCLE:     3 TIME:   0.007 TIME LEFT:  2.00D  GRAD.:    33.783 HEAT: 58.53784
 CYCLE:     4 TIME:   0.013 TIME LEFT:  2.00D  GRAD.:    43.674 HEAT: 58.37440
 CYCLE:     5 TIME:   0.007 TIME LEFT:  2.00D  GRAD.:    54.857 HEAT: 58.24267
 CYCLE:     6 TIME:   0.007 TIME LEFT:  2.00D  GRAD.:    47.306 HEAT: 58.02367
 CYCLE:     7 TIME:   0.013 TIME LEFT:  2.00D  GRAD.:    22.670 HEAT: 57.67653
 CYCLE:     8 TIME:   0.013 TIME LEFT:  2.00D  GRAD.:    12.384 HEAT: 57.56704
 CYCLE:     9 TIME:   0.007 TIME LEFT:  2.00D  GRAD.:     9.624 HEAT: 57.46245
 CYCLE:    10 TIME:   0.007 TIME LEFT:  2.00D  GRAD.:     7.362 HEAT: 57.37872
 CYCLE:    11 TIME:   0.007 TIME LEFT:  2.00D  GRAD.:    13.441 HEAT: 57.33628
 CYCLE:    12 TIME:   0.013 TIME LEFT:  2.00D  GRAD.:    12.072 HEAT: 57.32173
 CYCLE:    13 TIME:   0.013 TIME LEFT:  2.00D  GRAD.:     8.258 HEAT: 57.29509
 CYCLE:    14 TIME:   0.012 TIME LEFT:  2.00D  GRAD.:     4.858 HEAT: 57.28504
 CYCLE:    15 TIME:   0.007 TIME LEFT:  2.00D  GRAD.:     4.478 HEAT: 57.28056
 CYCLE:    16 TIME:   0.007 TIME LEFT:  2.00D  GRAD.:     5.067 HEAT: 57.27669
 CYCLE:    17 TIME:   0.007 TIME LEFT:  2.00D  GRAD.:     3.127 HEAT: 57.26977
 CYCLE:    18 TIME:   0.007 TIME LEFT:  2.00D  GRAD.:     4.351 HEAT: 57.26525
 CYCLE:    19 TIME:   0.007 TIME LEFT:  2.00D  GRAD.:     4.288 HEAT: 57.25930
 CYCLE:    20 TIME:   0.007 TIME LEFT:  2.00D  GRAD.:     6.401 HEAT: 57.25407
 CYCLE:    21 TIME:   0.012 TIME LEFT:  2.00D  GRAD.:     7.594 HEAT: 57.25403
 CYCLE:    22 TIME:   0.012 TIME LEFT:  2.00D  GRAD.:     3.322 HEAT: 57.24112
 CYCLE:    23 TIME:   0.007 TIME LEFT:  2.00D  GRAD.:     5.685 HEAT: 57.24518
 CYCLE:    24 TIME:   0.007 TIME LEFT:  2.00D  GRAD.:     1.928 HEAT: 57.23577
 CYCLE:    25 TIME:   0.007 TIME LEFT:  2.00D  GRAD.:     4.813 HEAT: 57.23954
 CYCLE:    26 TIME:   0.007 TIME LEFT:  2.00D  GRAD.:     1.519 HEAT: 57.23252
 CYCLE:    27 TIME:   0.007 TIME LEFT:  2.00D  GRAD.:     2.832 HEAT: 57.23237
 CYCLE:    28 TIME:   0.007 TIME LEFT:  2.00D  GRAD.:     1.263 HEAT: 57.22910
 CYCLE:    29 TIME:   0.007 TIME LEFT:  2.00D  GRAD.:     1.463 HEAT: 57.22664
 CYCLE:    30 TIME:   0.007 TIME LEFT:  2.00D  GRAD.:     1.900 HEAT: 57.22423
 CYCLE:    31 TIME:   0.007 TIME LEFT:  2.00D  GRAD.:     1.718 HEAT: 57.22243
 CYCLE:    32 TIME:   0.007 TIME LEFT:  2.00D  GRAD.:     1.394 HEAT: 57.22026
 CYCLE:    33 TIME:   0.007 TIME LEFT:  2.00D  GRAD.:     1.484 HEAT: 57.21838
 CYCLE:    34 TIME:   0.007 TIME LEFT:  2.00D  GRAD.:     1.193 HEAT: 57.21557
 CYCLE:    35 TIME:   0.007 TIME LEFT:  2.00D  GRAD.:     0.977 HEAT: 57.21377
 CYCLE:    36 TIME:   0.007 TIME LEFT:  2.00D  GRAD.:     1.353 HEAT: 57.20957
 CYCLE:    37 TIME:   0.007 TIME LEFT:  2.00D  GRAD.:     0.862 HEAT: 57.20828
 CYCLE:    38 TIME:   0.007 TIME LEFT:  2.00D  GRAD.:     0.556 HEAT: 57.20731
 CYCLE:    39 TIME:   0.007 TIME LEFT:  2.00D  GRAD.:     0.728 HEAT: 57.20608
 CYCLE:    40 TIME:   0.007 TIME LEFT:  2.00D  GRAD.:     0.734 HEAT: 57.20553
 CYCLE:    41 TIME:   0.007 TIME LEFT:  2.00D  GRAD.:     0.665 HEAT: 57.20465
 CYCLE:    42 TIME:   0.007 TIME LEFT:  2.00D  GRAD.:     0.606 HEAT: 57.20368
 CYCLE:    43 TIME:   0.007 TIME LEFT:  2.00D  GRAD.:     0.650 HEAT: 57.20301
 CYCLE:    44 TIME:   0.007 TIME LEFT:  2.00D  GRAD.:     0.700 HEAT: 57.20209
 CYCLE:    45 TIME:   0.010 TIME LEFT:  2.00D  GRAD.:     0.595 HEAT: 57.20116
 CYCLE:    46 TIME:   0.008 TIME LEFT:  2.00D  GRAD.:     0.436 HEAT: 57.20064
 CYCLE:    47 TIME:   0.008 TIME LEFT:  2.00D  GRAD.:     0.409 HEAT: 57.20029
 CYCLE:    48 TIME:   0.007 TIME LEFT:  2.00D  GRAD.:     0.383 HEAT: 57.19998
 CYCLE:    49 TIME:   0.007 TIME LEFT:  2.00D  GRAD.:     0.343 HEAT: 57.19959
 CYCLE:    50 TIME:   0.007 TIME LEFT:  2.00D  GRAD.:     0.312 HEAT: 57.19930
 CYCLE:    51 TIME:   0.007 TIME LEFT:  2.00D  GRAD.:     0.286 HEAT: 57.19905
 CYCLE:    52 TIME:   0.007 TIME LEFT:  2.00D  GRAD.:     0.227 HEAT: 57.19890
 CYCLE:    53 TIME:   0.007 TIME LEFT:  2.00D  GRAD.:     0.171 HEAT: 57.19882
 CYCLE:    54 TIME:   0.007 TIME LEFT:  2.00D  GRAD.:     0.142 HEAT: 57.19877
 CYCLE:    55 TIME:   0.007 TIME LEFT:  2.00D  GRAD.:     0.130 HEAT: 57.19873
 CYCLE:    56 TIME:   0.007 TIME LEFT:  2.00D  GRAD.:     0.116 HEAT: 57.19870
 CYCLE:    57 TIME:   0.007 TIME LEFT:  2.00D  GRAD.:     0.158 HEAT: 57.19869
 CYCLE:    58 TIME:   0.007 TIME LEFT:  2.00D  GRAD.:     0.094 HEAT: 57.19865
 CYCLE:    59 TIME:   0.007 TIME LEFT:  2.00D  GRAD.:     0.063 HEAT: 57.19863
 CYCLE:    60 TIME:   0.007 TIME LEFT:  2.00D  GRAD.:     0.056 HEAT: 57.19860
 CYCLE:    61 TIME:   0.007 TIME LEFT:  2.00D  GRAD.:     0.039 HEAT: 57.19860
 CYCLE:    62 TIME:   0.007 TIME LEFT:  2.00D  GRAD.:     0.032 HEAT: 57.19859
 CYCLE:    63 TIME:   0.007 TIME LEFT:  2.00D  GRAD.:     0.032 HEAT: 57.19859
 CYCLE:    64 TIME:   0.007 TIME LEFT:  2.00D  GRAD.:     0.030 HEAT: 57.19859
 CYCLE:    65 TIME:   0.007 TIME LEFT:  2.00D  GRAD.:     0.032 HEAT: 57.19858
 CYCLE:    66 TIME:   0.007 TIME LEFT:  2.00D  GRAD.:     0.035 HEAT: 57.19858
 CYCLE:    67 TIME:   0.006 TIME LEFT:  2.00D  GRAD.:     0.041 HEAT: 57.19858
 CYCLE:    68 TIME:   0.007 TIME LEFT:  2.00D  GRAD.:     0.054 HEAT: 57.19857
 CYCLE:    69 TIME:   0.007 TIME LEFT:  2.00D  GRAD.:     0.053 HEAT: 57.19856
 CYCLE:    70 TIME:   0.007 TIME LEFT:  2.00D  GRAD.:     0.057 HEAT: 57.19855
 CYCLE:    71 TIME:   0.007 TIME LEFT:  2.00D  GRAD.:     0.089 HEAT: 57.19851
 CYCLE:    72 TIME:   0.007 TIME LEFT:  2.00D  GRAD.:     0.126 HEAT: 57.19850
 CYCLE:    73 TIME:   0.007 TIME LEFT:  2.00D  GRAD.:     0.161 HEAT: 57.19845
 CYCLE:    74 TIME:   0.007 TIME LEFT:  2.00D  GRAD.:     0.122 HEAT: 57.19834
 CYCLE:    75 TIME:   0.007 TIME LEFT:  2.00D  GRAD.:     0.119 HEAT: 57.19831
 CYCLE:    76 TIME:   0.007 TIME LEFT:  2.00D  GRAD.:     0.126 HEAT: 57.19822
 CYCLE:    77 TIME:   0.007 TIME LEFT:  2.00D  GRAD.:     0.244 HEAT: 57.19809
 CYCLE:    78 TIME:   0.010 TIME LEFT:  2.00D  GRAD.:     0.175 HEAT: 57.19803
 CYCLE:    79 TIME:   0.008 TIME LEFT:  2.00D  GRAD.:     0.171 HEAT: 57.19798
 CYCLE:    80 TIME:   0.007 TIME LEFT:  2.00D  GRAD.:     0.419 HEAT: 57.19767
 CYCLE:    81 TIME:   0.007 TIME LEFT:  2.00D  GRAD.:     0.362 HEAT: 57.19740
 CYCLE:    82 TIME:   0.007 TIME LEFT:  2.00D  GRAD.:     0.323 HEAT: 57.19700
 CYCLE:    83 TIME:   0.007 TIME LEFT:  2.00D  GRAD.:     0.395 HEAT: 57.19649
 CYCLE:    84 TIME:   0.007 TIME LEFT:  2.00D  GRAD.:     0.927 HEAT: 57.19568
 CYCLE:    85 TIME:   0.008 TIME LEFT:  2.00D  GRAD.:     2.001 HEAT: 57.19548
 CYCLE:    86 TIME:   0.007 TIME LEFT:  2.00D  GRAD.:     1.021 HEAT: 57.19481
 CYCLE:    87 TIME:   0.007 TIME LEFT:  2.00D  GRAD.:     1.152 HEAT: 57.19339
 CYCLE:    88 TIME:   0.007 TIME LEFT:  2.00D  GRAD.:     1.605 HEAT: 57.19104
 CYCLE:    89 TIME:   0.007 TIME LEFT:  2.00D  GRAD.:     4.939 HEAT: 57.19145
 CYCLE:    90 TIME:   0.031 TIME LEFT:  2.00D  GRAD.:     7.297 HEAT: 57.19705
 CYCLE:    91 TIME:   0.006 TIME LEFT:  2.00D  GRAD.:     6.947 HEAT: 57.19413
 CYCLE:    92 TIME:   0.007 TIME LEFT:  2.00D  GRAD.:     6.381 HEAT: 57.18843
 CYCLE:    93 TIME:   0.007 TIME LEFT:  2.00D  GRAD.:     4.863 HEAT: 57.17367
 CYCLE:    94 TIME:   0.007 TIME LEFT:  2.00D  GRAD.:     2.559 HEAT: 57.14130
 CYCLE:    95 TIME:   0.007 TIME LEFT:  2.00D  GRAD.:     4.494 HEAT: 57.13498
 CYCLE:    96 TIME:   0.007 TIME LEFT:  2.00D  GRAD.:     3.159 HEAT: 57.12953
 CYCLE:    97 TIME:   0.007 TIME LEFT:  2.00D  GRAD.:     4.025 HEAT: 57.12031
 CYCLE:    98 TIME:   0.007 TIME LEFT:  2.00D  GRAD.:     4.363 HEAT: 57.11263
 CYCLE:    99 TIME:   0.007 TIME LEFT:  2.00D  GRAD.:     5.234 HEAT: 57.08948
 CYCLE:   100 TIME:   0.007 TIME LEFT:  2.00D  GRAD.:     8.019 HEAT: 57.06210
 CYCLE:   101 TIME:   0.025 TIME LEFT:  2.00D  GRAD.:     5.503 HEAT: 57.02325
 CYCLE:   102 TIME:   0.007 TIME LEFT:  2.00D  GRAD.:     2.648 HEAT: 57.00412
 CYCLE:   103 TIME:   0.007 TIME LEFT:  2.00D  GRAD.:     2.135 HEAT: 56.98915
 CYCLE:   104 TIME:   0.007 TIME LEFT:  2.00D  GRAD.:     2.279 HEAT: 56.97118
 CYCLE:   105 TIME:   0.007 TIME LEFT:  2.00D  GRAD.:     2.126 HEAT: 56.95048
 CYCLE:   106 TIME:   0.007 TIME LEFT:  2.00D  GRAD.:     1.978 HEAT: 56.92482
 CYCLE:   107 TIME:   0.007 TIME LEFT:  2.00D  GRAD.:     2.972 HEAT: 56.90448
 CYCLE:   108 TIME:   0.008 TIME LEFT:  2.00D  GRAD.:     3.854 HEAT: 56.84404
 CYCLE:   109 TIME:   0.007 TIME LEFT:  2.00D  GRAD.:    12.815 HEAT: 56.84092
 CYCLE:   110 TIME:   0.007 TIME LEFT:  2.00D  GRAD.:     7.635 HEAT: 56.80035
 CYCLE:   111 TIME:   0.007 TIME LEFT:  2.00D  GRAD.:     2.761 HEAT: 56.75700
 CYCLE:   112 TIME:   0.007 TIME LEFT:  2.00D  GRAD.:     3.570 HEAT: 56.74569
 CYCLE:   113 TIME:   0.007 TIME LEFT:  2.00D  GRAD.:     3.700 HEAT: 56.73576
 CYCLE:   114 TIME:   0.007 TIME LEFT:  2.00D  GRAD.:     1.836 HEAT: 56.72498
 CYCLE:   115 TIME:   0.007 TIME LEFT:  2.00D  GRAD.:     1.737 HEAT: 56.71755
 CYCLE:   116 TIME:   0.007 TIME LEFT:  2.00D  GRAD.:     2.011 HEAT: 56.70852
 CYCLE:   117 TIME:   0.007 TIME LEFT:  2.00D  GRAD.:     1.341 HEAT: 56.70224
 CYCLE:   118 TIME:   0.007 TIME LEFT:  2.00D  GRAD.:     1.623 HEAT: 56.69705
 CYCLE:   119 TIME:   0.007 TIME LEFT:  2.00D  GRAD.:     1.531 HEAT: 56.69205
 CYCLE:   120 TIME:   0.007 TIME LEFT:  2.00D  GRAD.:     1.976 HEAT: 56.68590
 CYCLE:   121 TIME:   0.007 TIME LEFT:  2.00D  GRAD.:     2.452 HEAT: 56.67394
 CYCLE:   122 TIME:   0.007 TIME LEFT:  2.00D  GRAD.:     2.299 HEAT: 56.66604
 CYCLE:   123 TIME:   0.007 TIME LEFT:  2.00D  GRAD.:     1.749 HEAT: 56.65408
 CYCLE:   124 TIME:   0.007 TIME LEFT:  2.00D  GRAD.:     5.069 HEAT: 56.65171
 CYCLE:   125 TIME:   0.007 TIME LEFT:  2.00D  GRAD.:     4.610 HEAT: 56.65026
 CYCLE:   126 TIME:   0.007 TIME LEFT:  2.00D  GRAD.:     0.913 HEAT: 56.63737
 CYCLE:   127 TIME:   0.007 TIME LEFT:  2.00D  GRAD.:     1.075 HEAT: 56.63494
 CYCLE:   128 TIME:   0.008 TIME LEFT:  2.00D  GRAD.:     1.103 HEAT: 56.63274
 CYCLE:   129 TIME:   0.007 TIME LEFT:  2.00D  GRAD.:     0.718 HEAT: 56.62932
 CYCLE:   130 TIME:   0.007 TIME LEFT:  2.00D  GRAD.:     0.710 HEAT: 56.62806
 CYCLE:   131 TIME:   0.007 TIME LEFT:  2.00D  GRAD.:     0.901 HEAT: 56.62688
 CYCLE:   132 TIME:   0.008 TIME LEFT:  2.00D  GRAD.:     1.028 HEAT: 56.62510
 CYCLE:   133 TIME:   0.007 TIME LEFT:  2.00D  GRAD.:     1.355 HEAT: 56.62210
 CYCLE:   134 TIME:   0.007 TIME LEFT:  2.00D  GRAD.:     0.968 HEAT: 56.62026
 CYCLE:   135 TIME:   0.007 TIME LEFT:  2.00D  GRAD.:     0.798 HEAT: 56.61892
 CYCLE:   136 TIME:   0.007 TIME LEFT:  2.00D  GRAD.:     1.326 HEAT: 56.61642
 CYCLE:   137 TIME:   0.007 TIME LEFT:  2.00D  GRAD.:     0.894 HEAT: 56.61539
 CYCLE:   138 TIME:   0.007 TIME LEFT:  2.00D  GRAD.:     0.750 HEAT: 56.61278
 CYCLE:   139 TIME:   0.007 TIME LEFT:  2.00D  GRAD.:     0.852 HEAT: 56.61163
 CYCLE:   140 TIME:   0.007 TIME LEFT:  2.00D  GRAD.:     0.948 HEAT: 56.60881
 CYCLE:   141 TIME:   0.007 TIME LEFT:  2.00D  GRAD.:     1.317 HEAT: 56.60323
 CYCLE:   142 TIME:   0.007 TIME LEFT:  2.00D  GRAD.:     1.336 HEAT: 56.60027
 CYCLE:   143 TIME:   0.007 TIME LEFT:  2.00D  GRAD.:     1.261 HEAT: 56.59365
 CYCLE:   144 TIME:   0.007 TIME LEFT:  2.00D  GRAD.:     0.976 HEAT: 56.59144
 CYCLE:   145 TIME:   0.007 TIME LEFT:  2.00D  GRAD.:     0.800 HEAT: 56.58958
 CYCLE:   146 TIME:   0.008 TIME LEFT:  2.00D  GRAD.:     0.749 HEAT: 56.58855
 CYCLE:   147 TIME:   0.007 TIME LEFT:  2.00D  GRAD.:     0.606 HEAT: 56.58700
 CYCLE:   148 TIME:   0.007 TIME LEFT:  2.00D  GRAD.:     0.684 HEAT: 56.58596
 CYCLE:   149 TIME:   0.007 TIME LEFT:  2.00D  GRAD.:     0.720 HEAT: 56.58579
 CYCLE:   150 TIME:   0.007 TIME LEFT:  2.00D  GRAD.:     0.289 HEAT: 56.58537
 CYCLE:   151 TIME:   0.010 TIME LEFT:  2.00D  GRAD.:     0.225 HEAT: 56.58528
 CYCLE:   152 TIME:   0.008 TIME LEFT:  2.00D  GRAD.:     0.183 HEAT: 56.58523
 CYCLE:   153 TIME:   0.007 TIME LEFT:  2.00D  GRAD.:     0.173 HEAT: 56.58521
 CYCLE:   154 TIME:   0.007 TIME LEFT:  2.00D  GRAD.:     0.154 HEAT: 56.58516
 CYCLE:   155 TIME:   0.007 TIME LEFT:  2.00D  GRAD.:     0.143 HEAT: 56.58513
 CYCLE:   156 TIME:   0.007 TIME LEFT:  2.00D  GRAD.:     0.143 HEAT: 56.58511
 CYCLE:   157 TIME:   0.007 TIME LEFT:  2.00D  GRAD.:     0.154 HEAT: 56.58502
 CYCLE:   158 TIME:   0.006 TIME LEFT:  2.00D  GRAD.:     0.145 HEAT: 56.58499
 CYCLE:   159 TIME:   0.007 TIME LEFT:  2.00D  GRAD.:     0.135 HEAT: 56.58494
 CYCLE:   160 TIME:   0.007 TIME LEFT:  2.00D  GRAD.:     0.248 HEAT: 56.58483
 CYCLE:   161 TIME:   0.007 TIME LEFT:  2.00D  GRAD.:     0.260 HEAT: 56.58476
 CYCLE:   162 TIME:   0.007 TIME LEFT:  2.00D  GRAD.:     0.268 HEAT: 56.58462
 CYCLE:   163 TIME:   0.007 TIME LEFT:  2.00D  GRAD.:     0.309 HEAT: 56.58424
 CYCLE:   164 TIME:   0.007 TIME LEFT:  2.00D  GRAD.:     0.514 HEAT: 56.58348
 CYCLE:   165 TIME:   0.007 TIME LEFT:  2.00D  GRAD.:     0.574 HEAT: 56.58297
 CYCLE:   166 TIME:   0.007 TIME LEFT:  2.00D  GRAD.:     0.638 HEAT: 56.58205
 CYCLE:   167 TIME:   0.007 TIME LEFT:  2.00D  GRAD.:     1.006 HEAT: 56.57968
 CYCLE:   168 TIME:   0.007 TIME LEFT:  2.00D  GRAD.:     1.294 HEAT: 56.57736
 CYCLE:   169 TIME:   0.007 TIME LEFT:  2.00D  GRAD.:     1.352 HEAT: 56.57324
 CYCLE:   170 TIME:   0.007 TIME LEFT:  2.00D  GRAD.:     1.346 HEAT: 56.57053
 CYCLE:   171 TIME:   0.007 TIME LEFT:  2.00D  GRAD.:     1.911 HEAT: 56.57030
 CYCLE:   172 TIME:   0.007 TIME LEFT:  2.00D  GRAD.:     1.303 HEAT: 56.56715
 CYCLE:   173 TIME:   0.007 TIME LEFT:  2.00D  GRAD.:     0.452 HEAT: 56.56646
 CYCLE:   174 TIME:   0.007 TIME LEFT:  2.00D  GRAD.:     0.395 HEAT: 56.56582
 CYCLE:   175 TIME:   0.007 TIME LEFT:  2.00D  GRAD.:     0.612 HEAT: 56.56528
 CYCLE:   176 TIME:   0.007 TIME LEFT:  2.00D  GRAD.:     1.094 HEAT: 56.56517
 CYCLE:   177 TIME:   0.007 TIME LEFT:  2.00D  GRAD.:     0.237 HEAT: 56.56475
 CYCLE:   178 TIME:   0.007 TIME LEFT:  2.00D  GRAD.:     0.316 HEAT: 56.56457
 CYCLE:   179 TIME:   0.007 TIME LEFT:  2.00D  GRAD.:     0.235 HEAT: 56.56435
 CYCLE:   180 TIME:   0.007 TIME LEFT:  2.00D  GRAD.:     0.277 HEAT: 56.56415
 CYCLE:   181 TIME:   0.007 TIME LEFT:  2.00D  GRAD.:     0.189 HEAT: 56.56408
 CYCLE:   182 TIME:   0.007 TIME LEFT:  2.00D  GRAD.:     0.195 HEAT: 56.56407
 CYCLE:   183 TIME:   0.007 TIME LEFT:  2.00D  GRAD.:     0.322 HEAT: 56.56401
 CYCLE:   184 TIME:   0.007 TIME LEFT:  2.00D  GRAD.:     0.177 HEAT: 56.56395
 CYCLE:   185 TIME:   0.007 TIME LEFT:  2.00D  GRAD.:     0.149 HEAT: 56.56390
 CYCLE:   186 TIME:   0.007 TIME LEFT:  2.00D  GRAD.:     0.167 HEAT: 56.56384
 CYCLE:   187 TIME:   0.007 TIME LEFT:  2.00D  GRAD.:     0.133 HEAT: 56.56378
 CYCLE:   188 TIME:   0.007 TIME LEFT:  2.00D  GRAD.:     0.101 HEAT: 56.56374
 CYCLE:   189 TIME:   0.007 TIME LEFT:  2.00D  GRAD.:     0.052 HEAT: 56.56367
 CYCLE:   190 TIME:   0.007 TIME LEFT:  2.00D  GRAD.:     0.052 HEAT: 56.56366
 CYCLE:   191 TIME:   0.007 TIME LEFT:  2.00D  GRAD.:     0.044 HEAT: 56.56366
 CYCLE:   192 TIME:   0.007 TIME LEFT:  2.00D  GRAD.:     0.043 HEAT: 56.56366
 CYCLE:   193 TIME:   0.007 TIME LEFT:  2.00D  GRAD.:     0.017 HEAT: 56.56366
 CYCLE:   194 TIME:   0.007 TIME LEFT:  2.00D  GRAD.:     0.016 HEAT: 56.56366
 CYCLE:   195 TIME:   0.007 TIME LEFT:  2.00D  GRAD.:     0.008 HEAT: 56.56366

     RMS GRADIENT =  0.00830  IS LESS THAN CUTOFF =  0.01000



 -------------------------------------------------------------------------------
pm3  precise nosym gnorm=0.0 nonr
 InChI=1S/C10H12/c1-2-3-4-7-10-8-5-6-9-10/h2-10H,1H3



     GEOMETRY OPTIMISED USING EIGENVECTOR FOLLOWING (EF).     
     SCF FIELD WAS ACHIEVED                                   


                              PM3 CALCULATION
                                                       MOPAC2012 (Version: 13.159M)
                                                       Mon Jun  2 11:13:55 2014
                                                       No. of days left =   6




          FINAL HEAT OF FORMATION =         56.56366 KCAL/MOL =     236.66234 KJ/MOL


          TOTAL ENERGY            =      -1367.94347 EV
          ELECTRONIC ENERGY       =      -6917.90808 EV  POINT GROUP:     C1  
          CORE-CORE REPULSION     =       5549.96462 EV
          COSMO AREA              =        197.40 SQUARE ANGSTROMS
          COSMO VOLUME            =        191.81 CUBIC ANGSTROMS

          GRADIENT NORM           =          0.00830
          IONIZATION POTENTIAL    =          8.991738 EV
          HOMO LUMO ENERGIES (EV) =         -8.992  0.146
          NO. OF FILLED LEVELS    =         26
          MOLECULAR WEIGHT        =        132.205

          MOLECULAR DIMENSIONS (Angstroms)

            Atom       Atom       Distance
            H    13    H    20     9.94329
            H    15    H    12     4.72295
            H    11    H    14     3.19694


          SCF CALCULATIONS        =        213
          COMPUTATION TIME        =          1.483 SECONDS




   ATOM   CHEMICAL          X               Y               Z
  NUMBER   SYMBOL      (ANGSTROMS)     (ANGSTROMS)     (ANGSTROMS)
 
     1       C         -1.75721803  *   0.12192818  *  -0.27499679  *
     2       C          4.47829532  *   0.15616253  *   0.44614763  *
     3       C         -2.66832237  *   0.96565716  *   0.58946003  *
     4       C         -2.53603071  *  -1.16904692  *  -0.40219263  *
     5       C         -0.43099162  *  -0.09426907  *   0.36686420  *
     6       C          3.15679308  *   0.36712335  *  -0.18224177  *
     7       C         -3.79101503  *   0.27143740  *   0.87463764  *
     8       C         -3.70873542  *  -1.05619782  *   0.25790461  *
     9       C          2.00581298  *   0.02963181  *   0.41106946  *
    10       C          0.71803542  *   0.24697076  *  -0.22738296  *
    11       H         -1.65831430  *   0.59548494  *  -1.28120211  *
    12       H          5.10150769  *  -0.49738236  *  -0.17931388  *
    13       H          5.00900245  *   1.11173440  *   0.55549085  *
    14       H          4.41239292  *  -0.30233686  *   1.44188049  *
    15       H         -2.40411089  *   1.97338474  *   0.90148567  *
    16       H         -2.15631099  *  -2.02466727  *  -0.95573685  *
    17       H         -0.44831726  *  -0.55331228  *   1.36312255  *
    18       H          3.16464550  *   0.82355237  *  -1.18014969  *
    19       H         -4.64416639  *   0.60411493  *   1.46257416  *
    20       H         -4.49494031  *  -1.80363492  *   0.34409576  *
    21       H          0.72621515  *   0.70606678  *  -1.22508585  *
    22       H          1.99815123  *  -0.42717714  *   1.40968476  *

           Empirical Formula: C10 H12  =    22 atoms



      MOLECULAR POINT GROUP   :   C1  


                  EIGENVALUES  
 -40.29104 -36.63714 -32.31003 -27.67496 -27.29504 -24.23557 -20.07119 -19.93507
 -18.77566 -18.60723 -17.95432 -16.41599 -15.97019 -14.35374 -14.28331 -13.98731
 -13.81512 -13.34225 -13.22612 -12.75251 -12.58295 -12.32157 -11.50266 -11.11257
  -9.36761  -8.99174   0.14623   0.28122   1.93477   2.08692   3.10734   3.36682
   3.39377   3.57826   3.68702   3.77461   3.89667   3.95274   4.07896   4.16068
   4.32042   4.32294   4.39635   4.43638   4.62049   5.11325   5.40464   5.71103
   5.74513   6.02392   6.07745   6.11810


              NET ATOMIC CHARGES AND DIPOLE CONTRIBUTIONS

  ATOM NO.   TYPE          CHARGE      No. of ELECS.   s-Pop       p-Pop       
    1          C          -0.003510        4.0035     1.15396     2.84955
    2          C          -0.076684        4.0767     1.12534     2.95134
    3          C          -0.152766        4.1528     1.20960     2.94317
    4          C          -0.152700        4.1527     1.20960     2.94310
    5          C          -0.112410        4.1124     1.19113     2.92128
    6          C          -0.131175        4.1312     1.19475     2.93643
    7          C          -0.119508        4.1195     1.19285     2.92665
    8          C          -0.119540        4.1195     1.19285     2.92669
    9          C          -0.122875        4.1229     1.18213     2.94074
   10          C          -0.112062        4.1121     1.18248     2.92958
   11          H           0.092482        0.9075     0.90752
   12          H           0.045549        0.9545     0.95445
   13          H           0.045546        0.9545     0.95445
   14          H           0.042440        0.9576     0.95756
   15          H           0.118715        0.8813     0.88129
   16          H           0.118716        0.8813     0.88128
   17          H           0.108495        0.8915     0.89150
   18          H           0.097959        0.9020     0.90204
   19          H           0.114154        0.8858     0.88585
   20          H           0.114159        0.8858     0.88584
   21          H           0.101168        0.8988     0.89883
   22          H           0.103846        0.8962     0.89615
 DIPOLE           X         Y         Z       TOTAL
 POINT-CHG.     0.545     0.089    -0.121     0.566
 HYBRID        -0.020     0.020    -0.047     0.055
 SUM            0.526     0.108    -0.168     0.562


          ATOMIC ORBITAL ELECTRON POPULATIONS

    Atom      s        px        py        pz   
    1  C   1.15396   0.93396   0.93833   0.97726
    2  C   1.12534   0.95136   1.00446   0.99552
    3  C   1.20960   0.96491   0.98639   0.99187
    4  C   1.20960   0.96710   0.97389   1.00211
    5  C   1.19113   0.92891   0.99872   0.99365
    6  C   1.19475   0.95124   0.99392   0.99127
    7  C   1.19285   0.97873   0.95036   0.99757
    8  C   1.19285   0.97529   0.96476   0.98663
    9  C   1.18213   0.93372   1.01519   0.99184
   10  C   1.18248   0.93550   1.00586   0.98823
   11  H   0.90752
   12  H   0.95445
   13  H   0.95445
   14  H   0.95756
   15  H   0.88129
   16  H   0.88128
   17  H   0.89150
   18  H   0.90204
   19  H   0.88585
   20  H   0.88584
   21  H   0.89883
   22  H   0.89615
 *******************************************************************************
 ** Site#: 14399           For non-commercial use only        Version 13.159M **
 *******************************************************************************
 ** Cite this work as: MOPAC2012, James J. P. Stewart, Stewart Computational  **
 ** Chemistry, Version 13.159M web: HTTP://OpenMOPAC.net  Days remaining:   6 **
 *******************************************************************************
 **                                                                           **
 **                                MOPAC2012                                  **
 **                                                                           **
 *******************************************************************************

                            PM3 CALCULATION RESULTS


 *******************************************************************************
 *  CALCULATION DONE:                                Mon Jun  2 11:13:55 2014  *
 *  PM3      - The PM3 Hamiltonian to be used
 *  OLDGEO   - PREVIOUS GEOMETRY TO BE USED
 *  PRECISE  - CRITERIA TO BE INCREASED BY 100 TIMES
 *  NOSYM    - POINT-GROUP SYMMETRY SET TO C1
 *  T=       - A TIME OF 172800.0 SECONDS REQUESTED
 *  DUMP=N   - RESTART FILE WRITTEN EVERY  7200.000 SECONDS
 *  THERMO   - THERMODYNAMIC QUANTITIES TO BE CALCULATED
 *******************************************************************************
oldgeo thermo nosym precise  pm3

   ATOM   CHEMICAL          X               Y               Z
  NUMBER   SYMBOL      (ANGSTROMS)     (ANGSTROMS)     (ANGSTROMS)
 
     1       C         -1.75721803  *   0.12192818  *  -0.27499679  *
     2       C          4.47829532  *   0.15616253  *   0.44614763  *
     3       C         -2.66832237  *   0.96565716  *   0.58946003  *
     4       C         -2.53603071  *  -1.16904692  *  -0.40219263  *
     5       C         -0.43099162  *  -0.09426907  *   0.36686420  *
     6       C          3.15679308  *   0.36712335  *  -0.18224177  *
     7       C         -3.79101503  *   0.27143740  *   0.87463764  *
     8       C         -3.70873542  *  -1.05619782  *   0.25790461  *
     9       C          2.00581298  *   0.02963181  *   0.41106946  *
    10       C          0.71803542  *   0.24697076  *  -0.22738296  *
    11       H         -1.65831430  *   0.59548494  *  -1.28120211  *
    12       H          5.10150769  *  -0.49738236  *  -0.17931388  *
    13       H          5.00900245  *   1.11173440  *   0.55549085  *
    14       H          4.41239292  *  -0.30233686  *   1.44188049  *
    15       H         -2.40411089  *   1.97338474  *   0.90148567  *
    16       H         -2.15631099  *  -2.02466727  *  -0.95573685  *
    17       H         -0.44831726  *  -0.55331228  *   1.36312255  *
    18       H          3.16464550  *   0.82355237  *  -1.18014969  *
    19       H         -4.64416639  *   0.60411493  *   1.46257416  *
    20       H         -4.49494031  *  -1.80363492  *   0.34409576  *
    21       H          0.72621515  *   0.70606678  *  -1.22508585  *
    22       H          1.99815123  *  -0.42717714  *   1.40968476  *
 


          CARTESIAN COORDINATES 

    NO.       ATOM         X         Y         Z

     1         C       -1.7572    0.1219   -0.2750
     2         C        4.4783    0.1562    0.4461
     3         C       -2.6683    0.9657    0.5895
     4         C       -2.5360   -1.1690   -0.4022
     5         C       -0.4310   -0.0943    0.3669
     6         C        3.1568    0.3671   -0.1822
     7         C       -3.7910    0.2714    0.8746
     8         C       -3.7087   -1.0562    0.2579
     9         C        2.0058    0.0296    0.4111
    10         C        0.7180    0.2470   -0.2274
    11         H       -1.6583    0.5955   -1.2812
    12         H        5.1015   -0.4974   -0.1793
    13         H        5.0090    1.1117    0.5555
    14         H        4.4124   -0.3023    1.4419
    15         H       -2.4041    1.9734    0.9015
    16         H       -2.1563   -2.0247   -0.9557
    17         H       -0.4483   -0.5533    1.3631
    18         H        3.1646    0.8236   -1.1801
    19         H       -4.6442    0.6041    1.4626
    20         H       -4.4949   -1.8036    0.3441
    21         H        0.7262    0.7061   -1.2251
    22         H        1.9982   -0.4272    1.4097

  H: (PM3): J. J. P. STEWART, J. COMP. CHEM. 10, 209 (1989).
  C: (PM3): J. J. P. STEWART, J. COMP. CHEM. 10, 209 (1989).

           Empirical Formula: C10 H12  =    22 atoms



      MOLECULAR POINT GROUP   :   C1  


      RHF CALCULATION, NO. OF DOUBLY OCCUPIED LEVELS =   26



          HEAT OF FORMATION =      56.563657 KCALS/MOLE


          INTERNAL COORDINATE DERIVATIVES

   NUMBER  ATOM       BOND         ANGLE      DIHEDRAL

     1       C     -0.001006     0.003008     0.003201
     2       C     -0.000993    -0.001726     0.000049
     3       C      0.001868    -0.001757    -0.003167
     4       C      0.002703    -0.001768    -0.004510
     5       C      0.000445    -0.000345     0.000617
     6       C      0.001862    -0.002945     0.002369
     7       C     -0.002201    -0.007568     0.007184
     8       C     -0.001304     0.007867    -0.001003
     9       C     -0.002764     0.002546    -0.001047
    10       C      0.001498     0.000769    -0.000583
    11       H     -0.000643     0.000394    -0.000191
    12       H     -0.001605     0.001523    -0.000137
    13       H      0.000833     0.000585    -0.000726
    14       H      0.000737    -0.000771     0.001417
    15       H     -0.000051    -0.000288     0.000366
    16       H     -0.000330    -0.000275    -0.000991
    17       H     -0.000019    -0.000792    -0.001072
    18       H     -0.000127    -0.001150    -0.001598
    19       H      0.000555     0.000353     0.000005
    20       H      0.000374    -0.000173    -0.000815
    21       H      0.000205     0.000133     0.001249
    22       H     -0.000039     0.002379    -0.000619


          GRADIENT NORM =   0.01769


          TIME FOR SCF CALCULATION =    0.01

          TIME FOR DERIVATIVES     =    0.00

          MOLECULAR WEIGHT =  132.20



          ROTATIONAL CONSTANTS IN CM(-1)

          A =    0.18891364   B =    0.01517688   C =    0.01473538



           PRINCIPAL MOMENTS OF INERTIA IN UNITS OF 10**(-40)*GRAM-CM**2

          A =      148.1776   B =     1844.4348   C =     1899.6987


          ORIENTATION OF MOLECULE IN FORCE CALCULATION

    NO.       ATOM         X         Y         Z

     1          C      -1.4239   -0.1328   -0.3070
     2          C       4.8533   -0.1328   -0.3070
     3          C      -2.2250    1.1508   -0.3070
     4          C      -2.2192   -1.0106    0.6344
     5          C      -0.0339    0.0836    0.1816
     6          C       3.4695   -0.3430   -0.7832
     7          C      -3.3113    1.0054    0.4820
     8          C      -3.3077   -0.3388    1.0675
     9          C       2.3925   -0.0204   -0.0574
    10          C       1.0411   -0.2370   -0.5474
    11          H      -1.4387   -0.5786   -1.3305
    12          H       5.3969   -1.0867   -0.2721
    13          H       5.3982    0.5325   -0.9905
    14          H       4.8997    0.3122    0.6959
    15          H      -1.9212    2.0254   -0.8774
    16          H      -1.9103   -2.0226    0.8857
    17          H       0.0608    0.5243    1.1818
    18          H       3.3651   -0.7857   -1.7818
    19          H      -4.0894    1.7400    0.6798
    20          H      -4.0828   -0.6978    1.7416
    21          H       0.9371   -0.6778   -1.5479
    22          H       2.4971    0.4226    0.9419


    FIRST DERIVATIVES WILL BE USED IN THE CALCULATION OF SECOND DERIVATIVES

          ESTIMATED TIME TO COMPLETE CALCULATION =        2.68 SECONDS

    FOR POINT-GROUP C1   THERE ARE   1 UNIQUE SYMMETRY FUNCTIONS.

 STEP:   1 TIME =     0.03 SECS, INTEGRAL =      0.03 TIME LEFT: 172799.96
 STEP:   2 TIME =     0.03 SECS, INTEGRAL =      0.07 TIME LEFT: 172799.92
 STEP:   3 TIME =     0.04 SECS, INTEGRAL =      0.10 TIME LEFT: 172799.89
 STEP:   4 TIME =     0.03 SECS, INTEGRAL =      0.13 TIME LEFT: 172799.86
 STEP:   5 TIME =     0.03 SECS, INTEGRAL =      0.17 TIME LEFT: 172799.82
 STEP:   6 TIME =     0.03 SECS, INTEGRAL =      0.20 TIME LEFT: 172799.79
 STEP:   7 TIME =     0.03 SECS, INTEGRAL =      0.23 TIME LEFT: 172799.76
 STEP:   8 TIME =     0.03 SECS, INTEGRAL =      0.26 TIME LEFT: 172799.73
 STEP:   9 TIME =     0.03 SECS, INTEGRAL =      0.30 TIME LEFT: 172799.69
 STEP:  10 TIME =     0.03 SECS, INTEGRAL =      0.33 TIME LEFT: 172799.66
 STEP:  11 TIME =     0.03 SECS, INTEGRAL =      0.36 TIME LEFT: 172799.63
 STEP:  12 TIME =     0.03 SECS, INTEGRAL =      0.39 TIME LEFT: 172799.60
 STEP:  13 TIME =     0.03 SECS, INTEGRAL =      0.42 TIME LEFT: 172799.57
 STEP:  14 TIME =     0.03 SECS, INTEGRAL =      0.46 TIME LEFT: 172799.53
 STEP:  15 TIME =     0.03 SECS, INTEGRAL =      0.49 TIME LEFT: 172799.50
 STEP:  16 TIME =     0.03 SECS, INTEGRAL =      0.52 TIME LEFT: 172799.47
 STEP:  17 TIME =     0.03 SECS, INTEGRAL =      0.55 TIME LEFT: 172799.44
 STEP:  18 TIME =     0.03 SECS, INTEGRAL =      0.59 TIME LEFT: 172799.40
 STEP:  19 TIME =     0.03 SECS, INTEGRAL =      0.62 TIME LEFT: 172799.37
 STEP:  20 TIME =     0.03 SECS, INTEGRAL =      0.65 TIME LEFT: 172799.34
 STEP:  21 TIME =     0.03 SECS, INTEGRAL =      0.68 TIME LEFT: 172799.31
 STEP:  22 TIME =     0.03 SECS, INTEGRAL =      0.72 TIME LEFT: 172799.27
 STEP:  23 TIME =     0.03 SECS, INTEGRAL =      0.75 TIME LEFT: 172799.24
 STEP:  24 TIME =     0.03 SECS, INTEGRAL =      0.78 TIME LEFT: 172799.21
 STEP:  25 TIME =     0.03 SECS, INTEGRAL =      0.81 TIME LEFT: 172799.18
 STEP:  26 TIME =     0.04 SECS, INTEGRAL =      0.85 TIME LEFT: 172799.14
 STEP:  27 TIME =     0.04 SECS, INTEGRAL =      0.89 TIME LEFT: 172799.10
 STEP:  28 TIME =     0.03 SECS, INTEGRAL =      0.92 TIME LEFT: 172799.07
 STEP:  29 TIME =     0.03 SECS, INTEGRAL =      0.95 TIME LEFT: 172799.04
 STEP:  30 TIME =     0.03 SECS, INTEGRAL =      0.98 TIME LEFT: 172799.01
 STEP:  31 TIME =     0.03 SECS, INTEGRAL =      1.02 TIME LEFT: 172798.97
 STEP:  32 TIME =     0.03 SECS, INTEGRAL =      1.05 TIME LEFT: 172798.94
 STEP:  33 TIME =     0.03 SECS, INTEGRAL =      1.08 TIME LEFT: 172798.91
 STEP:  34 TIME =     0.03 SECS, INTEGRAL =      1.11 TIME LEFT: 172798.88
 STEP:  35 TIME =     0.03 SECS, INTEGRAL =      1.14 TIME LEFT: 172798.85
 STEP:  36 TIME =     0.03 SECS, INTEGRAL =      1.18 TIME LEFT: 172798.81
 STEP:  37 TIME =     0.03 SECS, INTEGRAL =      1.21 TIME LEFT: 172798.78
 STEP:  38 TIME =     0.03 SECS, INTEGRAL =      1.24 TIME LEFT: 172798.75
 STEP:  39 TIME =     0.03 SECS, INTEGRAL =      1.27 TIME LEFT: 172798.72
 STEP:  40 TIME =     0.03 SECS, INTEGRAL =      1.30 TIME LEFT: 172798.69
 STEP:  41 TIME =     0.03 SECS, INTEGRAL =      1.33 TIME LEFT: 172798.66
 STEP:  42 TIME =     0.03 SECS, INTEGRAL =      1.36 TIME LEFT: 172798.63
 STEP:  43 TIME =     0.03 SECS, INTEGRAL =      1.40 TIME LEFT: 172798.59
 STEP:  44 TIME =     0.03 SECS, INTEGRAL =      1.43 TIME LEFT: 172798.56
 STEP:  45 TIME =     0.03 SECS, INTEGRAL =      1.46 TIME LEFT: 172798.53
 STEP:  46 TIME =     0.03 SECS, INTEGRAL =      1.49 TIME LEFT: 172798.50
 STEP:  47 TIME =     0.03 SECS, INTEGRAL =      1.52 TIME LEFT: 172798.47
 STEP:  48 TIME =     0.03 SECS, INTEGRAL =      1.56 TIME LEFT: 172798.43
 STEP:  49 TIME =     0.03 SECS, INTEGRAL =      1.59 TIME LEFT: 172798.40
 STEP:  50 TIME =     0.03 SECS, INTEGRAL =      1.62 TIME LEFT: 172798.37
 STEP:  51 TIME =     0.03 SECS, INTEGRAL =      1.65 TIME LEFT: 172798.34
 STEP:  52 TIME =     0.03 SECS, INTEGRAL =      1.69 TIME LEFT: 172798.30
 STEP:  53 TIME =     0.03 SECS, INTEGRAL =      1.72 TIME LEFT: 172798.27
 STEP:  54 TIME =     0.03 SECS, INTEGRAL =      1.75 TIME LEFT: 172798.24
 STEP:  55 TIME =     0.03 SECS, INTEGRAL =      1.78 TIME LEFT: 172798.21
 STEP:  56 TIME =     0.03 SECS, INTEGRAL =      1.81 TIME LEFT: 172798.18
 STEP:  57 TIME =     0.03 SECS, INTEGRAL =      1.84 TIME LEFT: 172798.15
 STEP:  58 TIME =     0.03 SECS, INTEGRAL =      1.88 TIME LEFT: 172798.11
 STEP:  59 TIME =     0.03 SECS, INTEGRAL =      1.91 TIME LEFT: 172798.08
 STEP:  60 TIME =     0.03 SECS, INTEGRAL =      1.94 TIME LEFT: 172798.05
 STEP:  61 TIME =     0.03 SECS, INTEGRAL =      1.97 TIME LEFT: 172798.02
 STEP:  62 TIME =     0.03 SECS, INTEGRAL =      2.00 TIME LEFT: 172797.99
 STEP:  63 TIME =     0.03 SECS, INTEGRAL =      2.04 TIME LEFT: 172797.95
 STEP:  64 TIME =     0.03 SECS, INTEGRAL =      2.07 TIME LEFT: 172797.92
 STEP:  65 TIME =     0.03 SECS, INTEGRAL =      2.10 TIME LEFT: 172797.89
 STEP:  66 TIME =     0.03 SECS, INTEGRAL =      2.13 TIME LEFT: 172797.86

(To convert to Hartree/Bohr^2, multiply by (10^(-21) x N x a0^2)/(4.184 x 627.51) = 0.0642)


           FORCE MATRIX IN MILLIDYNES/ANGSTROM


                  C  1       C  2       C  3       C  4       C  5       C  6
 ------------------------------------------------------------------------------
     C    1  15.229922
     C    2   0.010807  14.718998
     C    3   4.061242   0.002221  17.855999
     C    4   4.059917   0.002577   1.090927  17.860811
     C    5   4.870139   0.015751   0.648719   0.648919  18.076853
     C    6   0.016568   5.286499   0.001934   0.001716   0.106693  18.040115
     C    7   1.200884   0.001065   9.786654   1.565488   0.056433   0.001643
     C    8   1.200407   0.001228   1.566584   9.791384   0.056829   0.001275
     C    9   0.139573   0.859642   0.018565   0.018947   1.082700  10.359494
     C   10   0.829469   0.144879   0.034036   0.033758  10.377537   1.090123
     H   11   4.223637   0.000415   0.386899   0.386502   0.461187   0.000872
     H   12   0.001842   4.701987   0.000635   0.000473   0.001686   0.438367
     H   13   0.001857   4.700561   0.000409   0.000608   0.001625   0.437997
     H   14   0.000286   4.726759   0.000408   0.000381   0.001110   0.480405
     H   15   0.402971   0.000388   5.089804   0.042544   0.011394   0.000473
     H   16   0.403007   0.000388   0.042656   5.089787   0.011161   0.000508
     H   17   0.430139   0.004112   0.012320   0.012082   4.794983   0.004767
     H   18   0.004474   0.423829   0.001512   0.001597   0.004964   4.776273
     H   19   0.113096   0.000341   0.446250   0.049348   0.016957   0.000296
     H   20   0.112137   0.000362   0.049691   0.446213   0.016370   0.000440
     H   21   0.080309   0.002983   0.009039   0.009088   0.465454   0.041205
     H   22   0.002836   0.080080   0.000983   0.000955   0.041319   0.465372


                  C  7       C  8       C  9       C 10       H 11       H 12
 ------------------------------------------------------------------------------
     C    7  18.309004
     C    8   5.140092  18.314504
     C    9   0.004160   0.005154  18.472786
     C   10   0.008641   0.009083   5.619021  18.480118
     H   11   0.051010   0.050861   0.002715   0.048582   4.702609
     H   12   0.000421   0.000356   0.035655   0.020071   0.000139   5.421214
     H   13   0.000466   0.000428   0.035983   0.020253   0.000164   0.575101
     H   14   0.000367   0.000270   0.041070   0.002170   0.000127   0.563780
     H   15   0.442721   0.100198   0.001428   0.002608   0.010848   0.000107
     H   16   0.100402   0.442549   0.001415   0.002337   0.010862   0.000152
     H   17   0.005213   0.004995   0.084679   0.464186   0.037434   0.000646
     H   18   0.000995   0.000672   0.468446   0.086826   0.000474   0.024004
     H   19   5.069455   0.419578   0.001221   0.001916   0.014292   0.000165
     H   20   0.419581   5.069646   0.001469   0.001930   0.013950   0.000154
     H   21   0.002985   0.002448   0.443151   4.744226   0.029860   0.000776
     H   22   0.000624   0.000510   4.750745   0.443635   0.000647   0.008846


                  H 13       H 14       H 15       H 16       H 17       H 18
 ------------------------------------------------------------------------------
     H   13   5.420690
     H   14   0.562799   5.450977
     H   15   0.000146   0.000085   5.485071
     H   16   0.000084   0.000085   0.010215   5.485406
     H   17   0.000626   0.000368   0.003391   0.003435   5.168018
     H   18   0.023827   0.041832   0.000368   0.000356   0.002326   5.155438
     H   19   0.000155   0.000112   0.041506   0.005435   0.000772   0.000241
     H   20   0.000100   0.000091   0.005413   0.041193   0.000748   0.000254
     H   21   0.000745   0.000653   0.001071   0.001069   0.098974   0.028663
     H   22   0.008902   0.029769   0.000577   0.000574   0.028104   0.100684


                  H 19       H 20       H 21       H 22
 ------------------------------------------------------
     H   19   5.458887
     H   20   0.009643   5.459122
     H   21   0.000558   0.000596   5.121305
     H   22   0.000212   0.000161   0.035745   5.127788


          HEAT OF FORMATION =      56.563657 KCALS/MOLE

          ZERO POINT ENERGY     117.350 KCAL/MOL


           NORMAL COORDINATE ANALYSIS (Total motion = 1 Angstrom)


   Root No.       1         2         3         4         5         6         7         8

                 1 A       2 A       3 A       4 A       5 A       6 A       7 A       8 A   

                  62.3      94.9     103.9     127.3     164.4     187.5     275.5     307.7
  
           1    0.0001   -0.0142    0.0034    0.0007    0.0008   -0.0033   -0.0004   -0.0282
           2    0.0210   -0.0192   -0.0236   -0.0022    0.0071   -0.0140    0.0139   -0.0041
           3   -0.0092   -0.0244    0.0187    0.0028    0.0010   -0.0321   -0.0061   -0.0097
           4   -0.0003   -0.0117    0.0032    0.0003    0.0009   -0.0047    0.0010    0.0619
           5   -0.0428    0.0115   -0.0380    0.0141   -0.0130   -0.0146    0.0223   -0.0091
           6    0.0184    0.0511    0.0027   -0.0079    0.0063   -0.0309   -0.0106   -0.0192
           7   -0.0308    0.0041    0.0138    0.0133   -0.0105   -0.0005   -0.0147   -0.0345
           8    0.0012   -0.0073   -0.0171    0.0060   -0.0003   -0.0126    0.0050   -0.0023
           9   -0.0010   -0.0077   -0.0047    0.0166   -0.0070   -0.0311   -0.0095    0.0047
          10    0.0310   -0.0040   -0.0139   -0.0132    0.0105    0.0000    0.0136   -0.0346
          11    0.0014   -0.0050   -0.0065   -0.0076    0.0071   -0.0136    0.0105    0.0047
          12   -0.0008   -0.0018    0.0197   -0.0145    0.0096   -0.0294    0.0028    0.0009
          13   -0.0001   -0.0093    0.0024    0.0007    0.0017   -0.0197   -0.0001   -0.0062
          14    0.0464   -0.0261   -0.0238   -0.0124    0.0076    0.0045   -0.0170   -0.0172
          15   -0.0198   -0.0367    0.0219    0.0074   -0.0020    0.0108    0.0070   -0.0405
          16   -0.0004    0.0040   -0.0008    0.0000    0.0017   -0.0230    0.0005    0.0390
          17   -0.0264    0.0091    0.0169   -0.0193    0.0455    0.0116   -0.0348    0.0134
          18    0.0114    0.0051   -0.0097    0.0075   -0.0220    0.0164    0.0157    0.0286
          19   -0.0193    0.0301    0.0016    0.0073   -0.0104    0.0297   -0.0130   -0.0279
          20   -0.0251    0.0160   -0.0008    0.0054   -0.0058    0.0062   -0.0056    0.0065
          21    0.0102    0.0322   -0.0186    0.0081   -0.0076    0.0135   -0.0084    0.0170
          22    0.0198    0.0248   -0.0163   -0.0102    0.0041    0.0300    0.0120   -0.0281
          23   -0.0245    0.0174    0.0054   -0.0037   -0.0003    0.0061    0.0024    0.0074
          24    0.0113    0.0356   -0.0042   -0.0127    0.0047    0.0143    0.0100    0.0159
          25    0.0001   -0.0158    0.0042    0.0008    0.0009   -0.0056    0.0006    0.0259
          26    0.0278    0.0020    0.0389    0.0185   -0.0343    0.0156   -0.0396    0.0082
          27   -0.0119   -0.0219   -0.0118   -0.0079    0.0121    0.0411    0.0179    0.0163
          28   -0.0001   -0.0073    0.0021    0.0004    0.0003   -0.0026    0.0005    0.0241
          29    0.0301   -0.0012    0.0577   -0.0027   -0.0068    0.0145    0.0367   -0.0046
          30   -0.0126   -0.0445   -0.0144    0.0027    0.0018    0.0346   -0.0157   -0.0074
          31    0.0005   -0.0308    0.0072    0.0011   -0.0002    0.0224   -0.0006   -0.0497
          32    0.0212   -0.0218   -0.0358    0.0112    0.0010   -0.0142    0.0172   -0.0038
          33   -0.0093   -0.0222    0.0237   -0.0031    0.0036   -0.0311   -0.0076   -0.0090
          34   -0.0217   -0.0161   -0.0333   -0.0319   -0.0845   -0.0264    0.0422    0.0456
          35   -0.0537    0.0101   -0.0591    0.0016   -0.0578   -0.0274    0.0470   -0.0197
          36    0.0527    0.0821   -0.0033    0.1552    0.1275   -0.0397    0.0104   -0.0427
          37    0.0211    0.0149    0.0340    0.0323    0.0875   -0.0117   -0.0408    0.0479
          38   -0.0755    0.0016   -0.0513   -0.1152   -0.1322   -0.0349    0.0231   -0.0214
          39    0.0035    0.0628    0.0146   -0.1081   -0.0398   -0.0564   -0.0438   -0.0430
          40   -0.0002   -0.0458    0.0117    0.0007   -0.0009    0.0383    0.0018    0.1109
          41   -0.0134    0.0233   -0.0511    0.1755    0.0860   -0.0055    0.0591   -0.0098
          42    0.0054    0.0475    0.0081   -0.0794   -0.0375   -0.0372   -0.0269   -0.0221
          43   -0.0585   -0.0012    0.0293    0.0260   -0.0193   -0.0146   -0.0311   -0.0439
          44    0.0084   -0.0158   -0.0250    0.0114   -0.0013   -0.0227    0.0045   -0.0027
          45   -0.0047   -0.0236   -0.0086    0.0317   -0.0132   -0.0540   -0.0189   -0.0009
          46    0.0582   -0.0166   -0.0244   -0.0248    0.0219   -0.0135    0.0296   -0.0441
          47    0.0089   -0.0116   -0.0056   -0.0142    0.0129   -0.0233    0.0169    0.0007
          48   -0.0041   -0.0130    0.0359   -0.0269    0.0188   -0.0516    0.0092   -0.0038
          49   -0.0003   -0.0060    0.0018    0.0009    0.0039   -0.0512   -0.0003   -0.0109
          50    0.0699   -0.0468   -0.0935   -0.0183    0.0103    0.0050   -0.1127   -0.0138
          51   -0.0301   -0.0273    0.0524    0.0100   -0.0034    0.0132    0.0491   -0.0405
          52   -0.0008    0.0345   -0.0086   -0.0008    0.0030   -0.0565    0.0002    0.0272
          53   -0.0635    0.0129    0.0306   -0.0783    0.1426    0.0196   -0.0340    0.0129
          54    0.0279    0.0005   -0.0150    0.0337   -0.0651    0.0155    0.0154    0.0287
          55   -0.0353    0.0509    0.0045    0.0138   -0.0189    0.0476   -0.0276   -0.0217
          56   -0.0441    0.0313    0.0072    0.0106   -0.0128    0.0177   -0.0183    0.0115
          57    0.0178    0.0576   -0.0372    0.0147   -0.0152    0.0409   -0.0185    0.0241
          58    0.0360    0.0411   -0.0288   -0.0187    0.0085    0.0480    0.0265   -0.0222
          59   -0.0429    0.0338    0.0180   -0.0063   -0.0024    0.0186    0.0011    0.0088
          60    0.0201    0.0630   -0.0119   -0.0238    0.0087    0.0416    0.0259    0.0237
          61   -0.0001    0.0031   -0.0003   -0.0003   -0.0014    0.0109    0.0008    0.0538
          62    0.0100    0.0196    0.1287   -0.0035   -0.0018    0.0145    0.1419   -0.0088
          63   -0.0038   -0.0541   -0.0455    0.0031   -0.0001    0.0323   -0.0620   -0.0086
          64    0.0005   -0.0380    0.0097    0.0018    0.0012    0.0031    0.0007    0.0096
          65    0.0662   -0.0012    0.0287    0.0720   -0.1267    0.0084   -0.0715    0.0098
          66   -0.0289   -0.0178   -0.0080   -0.0317    0.0530    0.0423    0.0320    0.0165


   Root No.       9        10        11        12        13        14        15        16

                 9 A      10 A      11 A      12 A      13 A      14 A      15 A      16 A   

                 381.5     389.1     516.2     554.0     567.5     763.7     811.1     818.2
  
           1   -0.0018   -0.0001   -0.0001    0.0152    0.0268    0.0230    0.0006   -0.0006
           2    0.0018   -0.0266    0.0126    0.0136    0.0136   -0.0079   -0.0012   -0.0400
           3    0.0033    0.0114   -0.0056    0.0312    0.0312   -0.0180   -0.0006    0.0189
           4    0.0127    0.0005   -0.0001    0.0320   -0.0351   -0.0031    0.0000    0.0000
           5    0.0074    0.0081   -0.0010   -0.0025   -0.0006    0.0000   -0.0023   -0.0043
           6    0.0172   -0.0033    0.0004   -0.0054   -0.0017    0.0000    0.0010    0.0019
           7   -0.0278    0.0146   -0.0295   -0.0026   -0.0191   -0.0122    0.0178   -0.0363
           8   -0.0126   -0.0219   -0.0019   -0.0028   -0.0123   -0.0308    0.0064   -0.0171
           9   -0.0240   -0.0002   -0.0325   -0.0148   -0.0104    0.0000    0.0234    0.0314
          10   -0.0275   -0.0156    0.0297   -0.0027   -0.0193   -0.0118   -0.0177    0.0361
          11   -0.0085   -0.0151    0.0226   -0.0089    0.0008    0.0210   -0.0110   -0.0372
          12   -0.0258    0.0154    0.0238   -0.0120   -0.0158   -0.0223   -0.0214   -0.0084
          13   -0.0039   -0.0003    0.0000    0.0102    0.0478    0.0222    0.0002   -0.0002
          14    0.0158    0.0590   -0.0221    0.0132   -0.0052    0.0073   -0.0052   -0.0135
          15    0.0392   -0.0250    0.0096    0.0306   -0.0122    0.0166    0.0027    0.0057
          16    0.0289    0.0007    0.0000    0.0078   -0.0217   -0.0023    0.0000    0.0000
          17   -0.0163   -0.0171    0.0040    0.0177   -0.0018    0.0026   -0.0043   -0.0079
          18   -0.0380    0.0068   -0.0019    0.0406   -0.0043    0.0058    0.0020    0.0034
          19   -0.0036    0.0248    0.0191    0.0089   -0.0067   -0.0219    0.0139   -0.0592
          20    0.0057    0.0074    0.0169    0.0010    0.0042   -0.0046    0.0058    0.0670
          21    0.0135    0.0174    0.0400    0.0009    0.0122   -0.0024    0.0166    0.0093
          22   -0.0030   -0.0251   -0.0193    0.0086   -0.0071   -0.0210   -0.0145    0.0596
          23    0.0064   -0.0075   -0.0179   -0.0002    0.0059    0.0018   -0.0077    0.0384
          24    0.0139   -0.0168   -0.0400    0.0011    0.0112   -0.0046   -0.0150   -0.0563
          25    0.0271    0.0005    0.0001   -0.0402    0.0093   -0.0057   -0.0002    0.0002
          26   -0.0147   -0.0293    0.0055   -0.0096    0.0118   -0.0011    0.0045    0.0091
          27   -0.0356    0.0121   -0.0024   -0.0222    0.0272   -0.0026   -0.0022   -0.0038
          28   -0.0030   -0.0001    0.0001   -0.0385    0.0376    0.0023   -0.0001    0.0001
          29    0.0140    0.0388   -0.0132   -0.0146   -0.0102   -0.0047    0.0067    0.0090
          30    0.0335   -0.0162    0.0059   -0.0339   -0.0236   -0.0105   -0.0030   -0.0040
          31    0.0394    0.0006   -0.0001    0.0443    0.0401    0.0917    0.0017   -0.0016
          32    0.0021   -0.0613   -0.0223    0.0129    0.0129   -0.0084    0.0545   -0.0219
          33    0.0025    0.0265    0.0096    0.0293    0.0297   -0.0186   -0.0248    0.0110
          34    0.0313    0.0236   -0.0068    0.0115   -0.0341   -0.0086    0.0172    0.0330
          35    0.0191    0.0220   -0.0050   -0.0164    0.0008   -0.0035    0.0081    0.0155
          36    0.0432    0.0074   -0.0016   -0.0407    0.0050   -0.0075    0.0036    0.0076
          37    0.0320   -0.0220    0.0067    0.0109   -0.0341   -0.0086   -0.0174   -0.0327
          38    0.0200    0.0099   -0.0021   -0.0194    0.0033   -0.0032    0.0026    0.0050
          39    0.0453   -0.0200    0.0049   -0.0401    0.0038   -0.0076   -0.0087   -0.0162
          40   -0.0397   -0.0003   -0.0003    0.0995   -0.0499    0.0094    0.0003   -0.0004
          41    0.0073    0.0272   -0.0057   -0.0040   -0.0001   -0.0004    0.0075    0.0143
          42    0.0206   -0.0117    0.0025   -0.0099   -0.0006   -0.0008   -0.0033   -0.0063
          43   -0.0589    0.0359   -0.0789   -0.0322   -0.0770    0.0563   -0.1072    0.0276
          44   -0.0291   -0.0281   -0.0205   -0.0253   -0.0406    0.0261   -0.0734   -0.0570
          45   -0.0658    0.0015   -0.0871   -0.0650   -0.0845    0.1244   -0.1656    0.0063
          46   -0.0580   -0.0375    0.0794   -0.0318   -0.0765    0.0535    0.1069   -0.0273
          47   -0.0279   -0.0210    0.0505   -0.0303   -0.0341    0.0718    0.0741   -0.0464
          48   -0.0665    0.0181    0.0757   -0.0623   -0.0864    0.1011    0.1683    0.0373
          49   -0.0174   -0.0008   -0.0001    0.0528    0.0936    0.0361   -0.0005    0.0006
          50    0.0144    0.1132   -0.0674    0.0108   -0.0062    0.0057    0.0416    0.0448
          51    0.0399   -0.0489    0.0295    0.0270   -0.0158    0.0152   -0.0179   -0.0200
          52    0.0558    0.0012   -0.0001    0.0232   -0.0462   -0.0022    0.0001   -0.0002
          53   -0.0174    0.0123   -0.0078    0.0157    0.0000    0.0023    0.0234    0.0437
          54   -0.0388   -0.0062    0.0033    0.0383   -0.0023    0.0057   -0.0103   -0.0194
          55    0.0057    0.0639    0.0776    0.0004   -0.0169    0.0821   -0.0499   -0.0773
          56    0.0122    0.0398    0.0509   -0.0054   -0.0006    0.0726   -0.0332    0.0415
          57    0.0263    0.0506    0.1448   -0.0096   -0.0091    0.1208   -0.0901    0.0405
          58    0.0073   -0.0635   -0.0774   -0.0003   -0.0176    0.0815    0.0498    0.0799
          59    0.0116   -0.0094   -0.0712   -0.0035   -0.0062    0.0378    0.0413    0.0030
          60    0.0286   -0.0618   -0.1354   -0.0112   -0.0071    0.1326    0.0851   -0.0541
          61   -0.0355   -0.0008    0.0002   -0.0759    0.0656   -0.0094   -0.0005    0.0005
          62    0.0155    0.0278    0.0103   -0.0122   -0.0115   -0.0038   -0.0221   -0.0386
          63    0.0353   -0.0113   -0.0044   -0.0299   -0.0256   -0.0098    0.0098    0.0169
          64    0.0605    0.0012    0.0002   -0.0880    0.0057   -0.0181   -0.0003    0.0005
          65   -0.0143   -0.0832    0.0257   -0.0067    0.0108   -0.0005   -0.0257   -0.0444
          66   -0.0380    0.0359   -0.0113   -0.0178    0.0274   -0.0015    0.0112    0.0198


   Root No.      17        18        19        20        21        22        23        24

                17 A      18 A      19 A      20 A      21 A      22 A      23 A      24 A   

                 829.0     846.4     912.9     922.8     961.0     963.5     969.9     978.8
  
           1    0.0290    0.0001   -0.0001    0.0000   -0.0017   -0.0001    0.0008   -0.0001
           2   -0.0227    0.0052    0.0002   -0.0006   -0.0014   -0.0024   -0.0022    0.0075
           3   -0.0506   -0.0025    0.0000    0.0003   -0.0030    0.0011   -0.0049   -0.0033
           4    0.0006    0.0001    0.0000    0.0000   -0.0043    0.0004   -0.0329    0.0000
           5    0.0005   -0.0163   -0.0074   -0.0048    0.0000    0.0174    0.0125   -0.0031
           6    0.0009    0.0072    0.0033    0.0022    0.0023   -0.0082    0.0280    0.0013
           7    0.0105    0.0002    0.0011   -0.0008   -0.0235   -0.0004    0.0010    0.0093
           8   -0.0471    0.0053   -0.0060    0.0056    0.0074    0.0067    0.0066   -0.0147
           9    0.0370   -0.0098    0.0044   -0.0033   -0.0323   -0.0027    0.0029    0.0163
          10    0.0122   -0.0001   -0.0012    0.0008   -0.0227   -0.0016    0.0009   -0.0100
          11    0.0583    0.0113   -0.0076    0.0063   -0.0284    0.0043   -0.0022   -0.0231
          12   -0.0086    0.0027    0.0015   -0.0020   -0.0158   -0.0049    0.0065   -0.0009
          13    0.0026    0.0000    0.0000    0.0000    0.0092    0.0003    0.0029    0.0001
          14    0.0039   -0.0184    0.0305   -0.0342    0.0044   -0.0332   -0.0016    0.0085
          15    0.0085    0.0082   -0.0135    0.0150    0.0060    0.0150   -0.0020   -0.0037
          16   -0.0006    0.0000    0.0000    0.0000    0.0007   -0.0001    0.0062    0.0000
          17    0.0019   -0.0224   -0.0132   -0.0047    0.0011   -0.0114    0.0011    0.0024
          18    0.0039    0.0099    0.0059    0.0021    0.0008    0.0050    0.0023   -0.0010
          19   -0.0113    0.0049    0.0000   -0.0005    0.0176   -0.0026   -0.0011   -0.0180
          20    0.0062   -0.0104    0.0041   -0.0032    0.0078   -0.0044   -0.0025   -0.0116
          21    0.0268   -0.0040    0.0027   -0.0027    0.0222   -0.0061   -0.0027   -0.0312
          22   -0.0089   -0.0049    0.0000    0.0006    0.0165    0.0042   -0.0009    0.0189
          23    0.0168   -0.0040    0.0007   -0.0002    0.0101    0.0024   -0.0001    0.0153
          24    0.0212    0.0105   -0.0048    0.0043    0.0185    0.0092   -0.0032    0.0306
          25   -0.0085    0.0000    0.0000    0.0000    0.0019   -0.0001    0.0067    0.0000
          26   -0.0038    0.0302   -0.0209   -0.0014    0.0014   -0.0311   -0.0088    0.0037
          27   -0.0081   -0.0134    0.0093    0.0006   -0.0009    0.0140   -0.0180   -0.0016
          28   -0.0052   -0.0001    0.0001    0.0000    0.0042   -0.0001    0.0110    0.0001
          29    0.0011    0.0118   -0.0143   -0.0224   -0.0043    0.0458    0.0052   -0.0067
          30    0.0029   -0.0052    0.0063    0.0099   -0.0041   -0.0205    0.0094    0.0028
          31    0.0600    0.0004   -0.0003    0.0003    0.0619    0.0034   -0.0082    0.0008
          32   -0.0242    0.0008   -0.0030   -0.0067   -0.0055    0.0180   -0.0015    0.2256
          33   -0.0507   -0.0007    0.0014    0.0029   -0.0014   -0.0078   -0.0046   -0.0982
          34   -0.0052    0.1109    0.0460    0.0274   -0.0094   -0.0825   -0.1334    0.0145
          35   -0.0034    0.0502    0.0202    0.0116   -0.0032   -0.0320   -0.0506    0.0056
          36   -0.0077    0.0249    0.0110    0.0062   -0.0084   -0.0174   -0.1066    0.0033
          37   -0.0042   -0.1109   -0.0460   -0.0277   -0.0173    0.0859   -0.1324   -0.0145
          38   -0.0036    0.0155    0.0056    0.0032   -0.0034   -0.0076   -0.0454    0.0014
          39   -0.0071   -0.0541   -0.0222   -0.0130   -0.0114    0.0382   -0.1090   -0.0063
          40    0.0158    0.0002   -0.0003    0.0002    0.0143   -0.0027    0.2043   -0.0002
          41   -0.0003    0.0461    0.0185    0.0101    0.0016   -0.0269    0.0059    0.0045
          42    0.0000   -0.0204   -0.0082   -0.0045    0.0002    0.0116    0.0136   -0.0020
          43   -0.0338    0.0043    0.0063   -0.0075    0.0564   -0.0104   -0.0265   -0.0151
          44   -0.0624    0.0250   -0.0145    0.0142    0.0923    0.0119    0.0060   -0.0511
          45   -0.0086    0.0223   -0.0058    0.0064    0.1403    0.0000   -0.0126   -0.0533
          46   -0.0388   -0.0042   -0.0064    0.0080    0.0528    0.0166   -0.0257    0.0170
          47    0.0317    0.0012   -0.0058    0.0054    0.0381    0.0123   -0.0130    0.0055
          48   -0.0565   -0.0338    0.0150   -0.0144    0.1601    0.0052   -0.0041    0.0798
          49   -0.0433   -0.0003    0.0003   -0.0002    0.0379    0.0016   -0.0106    0.0008
          50    0.0038    0.0215   -0.1268    0.2850   -0.0027    0.0927    0.0010   -0.0132
          51    0.0122   -0.0093    0.0557   -0.1255    0.0062   -0.0405   -0.0021    0.0058
          52    0.0074    0.0000   -0.0002    0.0001    0.0059   -0.0014    0.1093   -0.0001
          53    0.0004    0.1549    0.2177    0.0770   -0.0027    0.0520   -0.0034   -0.0073
          54    0.0036   -0.0685   -0.0964   -0.0341    0.0018   -0.0229   -0.0080    0.0033
          55   -0.0806    0.0185   -0.0080    0.0064   -0.0984    0.0132    0.0024    0.1069
          56   -0.0171   -0.0020    0.0015   -0.0012   -0.0839    0.0022   -0.0049    0.0871
          57   -0.1598    0.0179   -0.0196    0.0173   -0.0907    0.0321    0.0208    0.0917
          58   -0.0800   -0.0193    0.0081   -0.0068   -0.0924   -0.0216    0.0013   -0.1119
          59   -0.1069   -0.0155    0.0157   -0.0139   -0.0064   -0.0238    0.0175   -0.0084
          60   -0.1266   -0.0120    0.0125   -0.0116   -0.1148   -0.0344    0.0090   -0.1317
          61   -0.0238   -0.0003    0.0001    0.0000    0.0087    0.0002    0.0182    0.0002
          62    0.0027   -0.1087    0.0362    0.2550    0.0043   -0.1520    0.0009    0.0222
          63    0.0039    0.0478   -0.0159   -0.1123   -0.0086    0.0664    0.0106   -0.0099
          64   -0.0173    0.0001   -0.0002   -0.0001    0.0035   -0.0008    0.0641    0.0000
          65   -0.0021   -0.0968    0.2385    0.0710   -0.0063    0.1245   -0.0078   -0.0128
          66   -0.0079    0.0427   -0.1056   -0.0315    0.0023   -0.0547   -0.0255    0.0057


   Root No.      25        26        27        28        29        30        31        32

                25 A      26 A      27 A      28 A      29 A      30 A      31 A      32 A   

                1000.9    1022.2    1034.1    1082.6    1089.7    1111.0    1149.9    1154.7
  
           1   -0.0194    0.0002    0.0000    0.0000   -0.0011   -0.0074   -0.0016   -0.0160
           2    0.0149    0.0127    0.0004    0.0044   -0.0020   -0.0007    0.0043   -0.0171
           3    0.0342   -0.0059   -0.0001   -0.0019   -0.0045   -0.0015    0.0097   -0.0392
           4   -0.0033    0.0000    0.0001    0.0000   -0.0002    0.0041    0.0184    0.0030
           5    0.0020    0.0066   -0.0359   -0.0001   -0.0001    0.0000    0.0063    0.0044
           6    0.0047   -0.0029    0.0156    0.0000   -0.0003    0.0001    0.0144    0.0100
           7   -0.0006   -0.0155   -0.0027   -0.0054    0.0017    0.0003    0.0054   -0.0030
           8   -0.0272   -0.0299   -0.0026   -0.0140   -0.0079    0.0208   -0.0187    0.0249
           9   -0.0108   -0.0178   -0.0039    0.0153    0.0059    0.0051    0.0030    0.0015
          10   -0.0005    0.0157    0.0027    0.0053    0.0016    0.0003    0.0054   -0.0029
          11    0.0105   -0.0071    0.0012   -0.0209    0.0097   -0.0105    0.0149   -0.0159
          12   -0.0269    0.0345    0.0045   -0.0003   -0.0018    0.0186   -0.0116    0.0193
          13   -0.0088    0.0000    0.0000    0.0000    0.0014   -0.0237   -0.0191    0.0228
          14   -0.0033   -0.0075   -0.0111   -0.0022    0.0007   -0.0047   -0.0033    0.0088
          15   -0.0077    0.0033    0.0048    0.0010    0.0015   -0.0111   -0.0075    0.0202
          16    0.0011    0.0000    0.0000    0.0000    0.0002   -0.0045   -0.0223   -0.0010
          17   -0.0010   -0.0089    0.0538    0.0002    0.0001   -0.0020   -0.0069   -0.0011
          18   -0.0024    0.0040   -0.0238   -0.0001    0.0003   -0.0045   -0.0158   -0.0027
          19   -0.0012    0.0169    0.0027   -0.0032   -0.0041   -0.0071    0.0071   -0.0090
          20    0.0170    0.0110    0.0014    0.0025   -0.0063    0.0156   -0.0150    0.0177
          21    0.0029    0.0233    0.0034   -0.0018    0.0046   -0.0043    0.0022   -0.0041
          22   -0.0014   -0.0171   -0.0027    0.0031   -0.0042   -0.0071    0.0071   -0.0090
          23   -0.0096   -0.0095   -0.0015    0.0030    0.0076   -0.0138    0.0118   -0.0150
          24    0.0140   -0.0242   -0.0034   -0.0005   -0.0017    0.0085   -0.0096    0.0102
          25    0.0043    0.0000    0.0000    0.0000    0.0000   -0.0066   -0.0079    0.0125
          26    0.0005    0.0029   -0.0335   -0.0003   -0.0001    0.0005    0.0049    0.0024
          27    0.0012   -0.0013    0.0149    0.0001   -0.0001    0.0011    0.0112    0.0056
          28   -0.0014    0.0000    0.0000    0.0000    0.0006   -0.0095   -0.0238    0.0011
          29    0.0015    0.0028    0.0194    0.0011   -0.0004   -0.0001   -0.0006   -0.0049
          30    0.0034   -0.0012   -0.0084   -0.0005   -0.0008    0.0001   -0.0013   -0.0113
          31   -0.0892    0.0004    0.0003    0.0005    0.0254    0.3294   -0.0139   -0.0279
          32    0.0161    0.2387    0.0350   -0.0863   -0.0021   -0.0018    0.0035   -0.0168
          33    0.0327   -0.1042   -0.0152    0.0375   -0.0057   -0.0053    0.0090   -0.0394
          34   -0.0160   -0.0291    0.1545    0.0003   -0.0002    0.0122    0.0398   -0.0067
          35   -0.0060   -0.0106    0.0557    0.0001   -0.0001    0.0040    0.0158   -0.0012
          36   -0.0131   -0.0067    0.0355    0.0000    0.0002    0.0032    0.0086   -0.0036
          37   -0.0162    0.0289   -0.1532   -0.0003   -0.0002    0.0120    0.0394   -0.0068
          38   -0.0057   -0.0024    0.0123    0.0001    0.0001   -0.0003   -0.0043   -0.0018
          39   -0.0133    0.0121   -0.0638   -0.0001    0.0000    0.0051    0.0174   -0.0033
          40    0.0302    0.0003   -0.0021    0.0000   -0.0018    0.0106    0.0944    0.0382
          41    0.0012   -0.0084    0.0434    0.0001   -0.0001    0.0001    0.0060    0.0041
          42    0.0028    0.0038   -0.0194    0.0000   -0.0003    0.0002    0.0135    0.0092
          43    0.1654    0.0509    0.0057   -0.1808    0.1403    0.0450   -0.0465    0.0432
          44   -0.0797    0.0036    0.0045    0.0852   -0.1005   -0.0248    0.0135   -0.0194
          45   -0.0041    0.0683    0.0114    0.0771   -0.0617   -0.0437    0.0278   -0.0453
          46    0.1642   -0.0533   -0.0058    0.1821    0.1395    0.0453   -0.0470    0.0437
          47    0.0516   -0.0486   -0.0053    0.0029    0.0242   -0.0147    0.0107   -0.0196
          48   -0.0612   -0.0493   -0.0112   -0.1149   -0.1148   -0.0478    0.0291   -0.0450
          49    0.0183   -0.0005   -0.0003    0.0002    0.0016    0.0378    0.1474    0.1510
          50   -0.0043    0.0307    0.0326    0.0012    0.0005   -0.0077   -0.0094    0.0044
          51   -0.0092   -0.0135   -0.0144   -0.0005    0.0015   -0.0167   -0.0215    0.0090
          52    0.0168    0.0001   -0.0008    0.0000    0.0003    0.0425   -0.0562   -0.1345
          53   -0.0019    0.0217   -0.1279   -0.0011    0.0002   -0.0040   -0.0056    0.0042
          54   -0.0039   -0.0096    0.0568    0.0005    0.0002   -0.0091   -0.0124    0.0100
          55    0.0295   -0.0173   -0.0042    0.0938   -0.1282    0.0105   -0.0011   -0.0013
          56    0.0706    0.0119   -0.0014    0.1364   -0.1798    0.0411   -0.0289    0.0321
          57   -0.0805   -0.1170   -0.0135   -0.1168    0.1648   -0.0250    0.0146   -0.0188
          58    0.0301    0.0181    0.0046   -0.0952   -0.1284    0.0111   -0.0014   -0.0008
          59   -0.1058    0.0953    0.0090    0.1791    0.2419   -0.0468    0.0308   -0.0360
          60   -0.0024    0.0727    0.0106   -0.0200   -0.0183    0.0132   -0.0112    0.0108
          61    0.0099   -0.0001    0.0003    0.0001    0.0033    0.1345    0.0335   -0.1373
          62    0.0012   -0.0043   -0.0518   -0.0054   -0.0005   -0.0060   -0.0029    0.0004
          63    0.0028    0.0019    0.0229    0.0023   -0.0012   -0.0143   -0.0066    0.0011
          64    0.0299    0.0000   -0.0005    0.0000   -0.0028    0.0392    0.1864    0.0555
          65   -0.0006   -0.0078    0.0945    0.0001    0.0001   -0.0015   -0.0026    0.0010
          66   -0.0011    0.0034   -0.0417    0.0000    0.0001   -0.0032   -0.0065    0.0018


   Root No.      33        34        35        36        37        38        39        40

                33 A      34 A      35 A      36 A      37 A      38 A      39 A      40 A   

                1176.9    1205.2    1221.1    1231.9    1253.8    1311.0    1311.2    1384.4
  
           1   -0.0144   -0.0001    0.0051    0.0169    0.0002    0.0471   -0.0165   -0.0449
           2   -0.0089    0.0417   -0.0070   -0.0022    0.0006    0.0280    0.0965    0.0001
           3   -0.0206   -0.0182   -0.0160   -0.0052    0.0013   -0.0114   -0.0423    0.0002
           4   -0.0144    0.0000    0.0157    0.0010    0.0051   -0.0003    0.0001   -0.0435
           5   -0.0114    0.0000    0.0058   -0.0032    0.0028   -0.0031    0.0011    0.0023
           6   -0.0258    0.0000    0.0132   -0.0072    0.0065   -0.0072    0.0025    0.0051
           7    0.0019   -0.0162   -0.0033   -0.0046    0.0001    0.0022    0.0308   -0.0037
           8    0.0011    0.0068    0.0094    0.0106   -0.0002   -0.0062   -0.0614   -0.0003
           9    0.0025    0.0119   -0.0023   -0.0035    0.0003   -0.0038    0.0113    0.0062
          10    0.0019    0.0162   -0.0032   -0.0044    0.0001   -0.0141   -0.0264   -0.0038
          11    0.0010   -0.0041   -0.0081   -0.0097    0.0003   -0.0250   -0.0421    0.0046
          12    0.0025   -0.0129    0.0053    0.0053    0.0001    0.0134    0.0350    0.0040
          13    0.0028    0.0000    0.0185    0.0195   -0.0013    0.0067   -0.0024    0.0177
          14    0.0081   -0.0095    0.0108    0.0037   -0.0058   -0.0215   -0.0049    0.0041
          15    0.0187    0.0042    0.0247    0.0084   -0.0133   -0.0404    0.0196    0.0092
          16    0.0084    0.0000   -0.0269   -0.0204   -0.0265   -0.0241    0.0085    0.0038
          17    0.0092    0.0001   -0.0104    0.0016   -0.0151    0.0108   -0.0038    0.0073
          18    0.0211   -0.0001   -0.0237    0.0034   -0.0344    0.0246   -0.0086    0.0164
          19   -0.0001   -0.0099   -0.0042   -0.0051    0.0000   -0.0074    0.0035    0.0075
          20   -0.0004   -0.0175    0.0078    0.0097    0.0001    0.0224    0.0148   -0.0345
          21   -0.0009    0.0127   -0.0008   -0.0005   -0.0001   -0.0042   -0.0102    0.0095
          22   -0.0001    0.0099   -0.0042   -0.0050    0.0000   -0.0079    0.0017    0.0074
          23   -0.0004   -0.0213   -0.0059   -0.0071   -0.0001   -0.0060    0.0259    0.0305
          24   -0.0009    0.0041    0.0052    0.0068    0.0000    0.0091   -0.0116   -0.0188
          25   -0.0093    0.0000   -0.0219   -0.0104    0.0030   -0.0519    0.0182   -0.0007
          26    0.0007   -0.0003   -0.0020    0.0083    0.0140   -0.0195    0.0073   -0.0061
          27    0.0014    0.0001   -0.0044    0.0189    0.0320   -0.0447    0.0155   -0.0139
          28   -0.0074    0.0001    0.0057   -0.0058    0.0053    0.0358   -0.0126    0.0218
          29    0.0024    0.0032    0.0001   -0.0124    0.0025    0.0262   -0.0049   -0.0007
          30    0.0053   -0.0014    0.0001   -0.0280    0.0057    0.0567   -0.0218   -0.0016
          31   -0.0927    0.0005   -0.1086   -0.0266    0.0324   -0.0304    0.0106    0.0500
          32   -0.0089   -0.1127   -0.0057   -0.0018    0.0000   -0.0302   -0.1067    0.0000
          33   -0.0198    0.0489   -0.0135   -0.0040    0.0000    0.0139    0.0461    0.0001
          34   -0.0032    0.0000    0.0544    0.0436    0.0591    0.0662   -0.0233    0.1648
          35   -0.0026    0.0000    0.0230    0.0194    0.0272    0.0310   -0.0109    0.0985
          36    0.0130    0.0000    0.0018    0.0218   -0.0008    0.0155   -0.0054   -0.1258
          37   -0.0031   -0.0002    0.0541    0.0433    0.0585    0.0662   -0.0234    0.1643
          38    0.0114    0.0000   -0.0141    0.0032   -0.0189   -0.0095    0.0034   -0.1596
          39    0.0068   -0.0001    0.0182    0.0289    0.0194    0.0334   -0.0118   -0.0115
          40   -0.1207    0.0001    0.1100    0.0108    0.1046    0.0166   -0.0059    0.0087
          41   -0.0098    0.0001    0.0047   -0.0022    0.0016   -0.0026    0.0010   -0.0008
          42   -0.0222    0.0000    0.0109   -0.0050    0.0037   -0.0052    0.0018   -0.0018
          43   -0.0059    0.1506    0.0170    0.0213   -0.0008    0.0107   -0.0358    0.0149
          44   -0.0023   -0.0992   -0.0024   -0.0012    0.0000   -0.0030   -0.0280   -0.0184
          45   -0.0070   -0.0634   -0.0113   -0.0098    0.0001    0.0028    0.0285   -0.0083
          46   -0.0063   -0.1501    0.0173    0.0210   -0.0008    0.0274    0.0230    0.0150
          47   -0.0037   -0.0221   -0.0065   -0.0062    0.0001   -0.0174   -0.0351    0.0064
          48   -0.0062    0.1153   -0.0095   -0.0072    0.0001    0.0002    0.0012   -0.0192
          49    0.2145   -0.0003   -0.0328   -0.1899    0.0622    0.0636   -0.0229   -0.0219
          50    0.0014    0.0188    0.0137    0.0107   -0.0083   -0.0146    0.0315    0.0056
          51    0.0023   -0.0082    0.0311    0.0248   -0.0192   -0.0521    0.0067    0.0128
          52    0.2466   -0.0006   -0.0197    0.1360    0.1900   -0.0133    0.0046   -0.0176
          53    0.0002   -0.0003   -0.0117   -0.0042   -0.0244    0.0113   -0.0040    0.0089
          54    0.0003    0.0002   -0.0263   -0.0092   -0.0551    0.0255   -0.0089    0.0202
          55   -0.0004    0.0751   -0.0041   -0.0053   -0.0003   -0.0325   -0.0589    0.0352
          56   -0.0003    0.1001    0.0098    0.0112   -0.0004   -0.0100   -0.0738   -0.0002
          57   -0.0025   -0.0930   -0.0027   -0.0009    0.0003    0.0299    0.0702   -0.0264
          58   -0.0005   -0.0756   -0.0040   -0.0055   -0.0003    0.0041    0.0689    0.0353
          59   -0.0013    0.1358   -0.0087   -0.0079    0.0005   -0.0295   -0.1011   -0.0192
          60   -0.0019   -0.0095    0.0054    0.0076    0.0000    0.0138   -0.0035   -0.0183
          61    0.1003    0.0000    0.2382   -0.0566   -0.1750   -0.0683    0.0241   -0.0103
          62   -0.0010   -0.0102   -0.0089   -0.0110    0.0102    0.0265   -0.0249    0.0004
          63   -0.0023    0.0045   -0.0204   -0.0254    0.0237    0.0719   -0.0184    0.0008
          64    0.0382   -0.0007   -0.1015    0.2253   -0.1654    0.0549   -0.0192    0.0195
          65   -0.0005    0.0008    0.0007   -0.0006    0.0221   -0.0251    0.0085   -0.0075
          66   -0.0010   -0.0003    0.0014   -0.0019    0.0498   -0.0564    0.0199   -0.0170


   Root No.      41        42        43        44        45        46        47        48

                41 A      42 A      43 A      44 A      45 A      46 A      47 A      48 A   

                1395.9    1396.3    1417.4    1442.5    1731.0    1788.0    1861.9    1887.2
  
           1    0.0083   -0.0271   -0.0378    0.0652   -0.0163    0.0000   -0.0259   -0.0176
           2    0.0003   -0.0009    0.0030   -0.0022    0.0030   -0.0004   -0.0012   -0.0008
           3    0.0006   -0.0021    0.0070   -0.0051    0.0069    0.0001   -0.0027   -0.0019
           4   -0.0022    0.0081   -0.0373   -0.0516   -0.0003    0.0000   -0.0250    0.0177
           5   -0.0312   -0.0153   -0.0097   -0.0082    0.0000    0.0000   -0.0018    0.0012
           6    0.0210   -0.0167   -0.0216   -0.0185   -0.0001    0.0000   -0.0041    0.0027
           7    0.0025   -0.0087    0.0183   -0.0130    0.1151    0.1055   -0.0028   -0.0026
           8   -0.0017    0.0060   -0.0199    0.0163    0.0112    0.0001   -0.0001    0.0002
           9   -0.0016    0.0053   -0.0015   -0.0019   -0.0806   -0.0701    0.0011    0.0008
          10    0.0025   -0.0087    0.0182   -0.0129    0.1146   -0.1064   -0.0028   -0.0026
          11    0.0000   -0.0003    0.0125   -0.0125   -0.0659    0.0513    0.0008    0.0004
          12   -0.0024    0.0080   -0.0155    0.0106   -0.0466    0.0482    0.0007    0.0007
          13   -0.0053    0.0178    0.0056   -0.0350    0.0029    0.0000    0.1303    0.1109
          14   -0.0004    0.0013    0.0031   -0.0021   -0.0007    0.0029   -0.0232   -0.0222
          15   -0.0009    0.0030    0.0071   -0.0047   -0.0017   -0.0013   -0.0531   -0.0507
          16    0.0037   -0.0127    0.0095    0.0351    0.0009    0.0000    0.1301   -0.1123
          17   -0.0012    0.0020    0.0058    0.0029   -0.0001    0.0000   -0.0231    0.0225
          18   -0.0012    0.0048    0.0131    0.0066   -0.0002    0.0000   -0.0521    0.0507
          19   -0.0017    0.0057    0.0013   -0.0052   -0.1013   -0.1079    0.0024    0.0018
          20    0.0118   -0.0398    0.0395   -0.0145   -0.0276   -0.0178   -0.0005   -0.0003
          21   -0.0039    0.0132   -0.0183    0.0104    0.0795    0.0795   -0.0015   -0.0011
          22   -0.0017    0.0055    0.0014   -0.0052   -0.1008    0.1087    0.0024    0.0018
          23   -0.0109    0.0368   -0.0404    0.0175    0.0762   -0.0705   -0.0008   -0.0006
          24    0.0060   -0.0201    0.0163   -0.0035    0.0339   -0.0415   -0.0014   -0.0010
          25    0.0037   -0.0127    0.0094    0.0345    0.0003    0.0000   -0.1038    0.1409
          26    0.0011   -0.0044   -0.0040    0.0028    0.0002   -0.0001    0.0248   -0.0208
          27    0.0031   -0.0099   -0.0091    0.0064    0.0003    0.0000    0.0559   -0.0470
          28   -0.0063    0.0210    0.0093   -0.0372   -0.0039    0.0000   -0.1048   -0.1401
          29   -0.0007    0.0020   -0.0016   -0.0030    0.0008   -0.0002    0.0249    0.0206
          30   -0.0013    0.0046   -0.0037   -0.0067    0.0019    0.0001    0.0568    0.0470
          31   -0.0102    0.0338    0.0277   -0.0562    0.0071   -0.0001    0.0262    0.0224
          32    0.0003   -0.0008    0.0026   -0.0018    0.0005    0.0312   -0.0018   -0.0015
          33    0.0005   -0.0019    0.0060   -0.0043    0.0007   -0.0136   -0.0042   -0.0036
          34   -0.0297   -0.0718    0.0434    0.0540    0.0000    0.0000   -0.0125    0.0115
          35   -0.0355   -0.0443    0.0347    0.0461    0.0001    0.0000    0.0012    0.0017
          36   -0.2629    0.1245    0.1056    0.0651    0.0000    0.0000   -0.0014    0.0008
          37    0.0668   -0.0525    0.0436    0.0538    0.0000    0.0000   -0.0126    0.0116
[...]
 FREQ.      1311.22        C  1 --  C  3          +20.2% ( 73.4%)    84.2%
 T-DIPOLE    0.0776        C  1 --  C  4          +17.5% ( 68.3%)    70.7%
 TRAVEL      0.0704        C  1 --  H 11          +12.1% ( 56.8%)     0.0%
 RED. MASS   2.7115        C  1 --  C  5          +10.3% ( 52.4%)     2.5%
 EFF. MASS  10.3615

 VIBRATION   40   40A       ATOM PAIR        ENERGY CONTRIBUTION    RADIAL
 FREQ.      1384.39        C  2 --  H 12          +13.7% ( 49.2%)     4.1%
 T-DIPOLE    0.1714        C  2 --  H 13          +13.7% ( 49.2%)     4.1%
 TRAVEL      0.0895        C  7 --  C  8           +9.5% ( 41.0%)   100.0%
 RED. MASS   0.5730        C  1 --  C  5           +7.6% ( 36.6%)    95.6%
 EFF. MASS   6.0751

 VIBRATION   41   41A       ATOM PAIR        ENERGY CONTRIBUTION    RADIAL
 FREQ.      1395.93        C  2 --  H 14          +47.8% ( 62.0%)     0.2%
 T-DIPOLE    0.0698        C  2 --  H 12          +25.5% ( 45.3%)     6.0%
 TRAVEL      0.1631        C  2 --  H 13          +12.7% ( 31.9%)    22.5%
 RED. MASS   0.4035        C  2 --  C  6           +4.7% ( 19.4%)     0.5%
 EFF. MASS   1.8166

 VIBRATION   42   42A       ATOM PAIR        ENERGY CONTRIBUTION    RADIAL
 FREQ.      1396.26        C  7 --  C  8          +15.8% ( 52.0%)   100.0%
 T-DIPOLE    0.0736        C  2 --  H 13          +12.1% ( 45.6%)     0.2%
 TRAVEL      0.0898        C  2 --  H 12           +6.2% ( 32.5%)     6.0%
 RED. MASS   0.5438        C  3 --  C  8           +6.0% ( 32.2%)    97.5%
 EFF. MASS   5.9831

 VIBRATION   43   43A       ATOM PAIR        ENERGY CONTRIBUTION    RADIAL
 FREQ.      1417.42        C  7 --  C  8          +12.1% ( 51.1%)   100.0%
 T-DIPOLE    0.2052        C  2 --  H 14           +8.3% ( 42.3%)     7.3%
 TRAVEL      0.0788        C  2 --  H 13           +7.0% ( 38.9%)     1.5%
 RED. MASS   0.7860        C  2 --  H 12           +7.0% ( 38.8%)     1.5%
 EFF. MASS   7.6527

 VIBRATION   44   44A       ATOM PAIR        ENERGY CONTRIBUTION    RADIAL
 FREQ.      1442.48        C  1 --  C  5          +12.2% ( 53.9%)    86.8%
 T-DIPOLE    0.0852        C  2 --  C  6           +9.9% ( 48.6%)    99.7%
 TRAVEL      0.0707        C  1 --  C  3           +8.3% ( 44.5%)    50.4%
 RED. MASS   1.2761        C  1 --  C  4           +8.3% ( 44.5%)    49.9%
 EFF. MASS   9.3483

 VIBRATION   45   45A       ATOM PAIR        ENERGY CONTRIBUTION    RADIAL
 FREQ.      1730.96        C  3 --  C  7          +18.3% ( 72.9%)    99.9%
 T-DIPOLE    0.2917        C  4 --  C  8          +18.1% ( 72.4%)    99.9%
 TRAVEL      0.0569        C  4 --  C  7          +10.7% ( 55.6%)    25.6%
 RED. MASS   2.7153        C  3 --  C  8          +10.7% ( 55.6%)    25.7%
 EFF. MASS  12.0261

 VIBRATION   46   46A       ATOM PAIR        ENERGY CONTRIBUTION    RADIAL
 FREQ.      1787.99        C  4 --  C  8          +18.0% ( 70.4%)    99.8%
 T-DIPOLE    0.3176        C  3 --  C  7          +17.8% ( 69.9%)    99.8%
 TRAVEL      0.0565        C  7 --  C  8          +12.2% ( 57.8%)     0.0%
 RED. MASS   2.6862        C  3 --  C  8          +10.9% ( 54.7%)    64.8%
 EFF. MASS  11.7991        C  4 --  C  7          +10.9% ( 54.7%)    66.7%

 VIBRATION   47   47A       ATOM PAIR        ENERGY CONTRIBUTION    RADIAL
 FREQ.      1861.86        C  5 --  C 10          +22.5% ( 69.8%)    97.3%
 T-DIPOLE    0.5673        C  6 --  C  9          +22.1% ( 69.2%)    97.2%
 TRAVEL      0.0553        C  9 --  C 10           +9.9% ( 46.2%)    22.0%
 RED. MASS   2.7861        C  1 --  C  5           +8.7% ( 43.3%)    57.9%
 EFF. MASS  11.8475

 VIBRATION   48   48A       ATOM PAIR        ENERGY CONTRIBUTION    RADIAL
 FREQ.      1887.17        C  6 --  C  9          +21.4% ( 68.7%)    94.5%
 T-DIPOLE    0.3068        C  5 --  C 10          +21.2% ( 68.3%)    94.5%
 TRAVEL      0.0551        C  9 --  C 10          +18.7% ( 64.2%)    55.8%
 RED. MASS   2.8690        C  9 --  H 22           +8.0% ( 42.1%)     1.7%
 EFF. MASS  11.7692

 VIBRATION   49   49A       ATOM PAIR        ENERGY CONTRIBUTION    RADIAL
 FREQ.      2888.08        C  1 --  H 11          +96.7% ( 99.9%)   100.0%
 T-DIPOLE    0.1831        C  1 --  C  5           +1.1% ( 10.5%)    13.3%
 TRAVEL      0.1272        C  1 --  C  4           +1.0% ( 10.4%)    10.6%
 RED. MASS   0.9281        C  1 --  C  3           +1.0% ( 10.4%)    10.5%
 EFF. MASS   1.4425

 VIBRATION   50   50A       ATOM PAIR        ENERGY CONTRIBUTION    RADIAL
 FREQ.      3026.50        C 10 --  H 21          +60.3% ( 79.0%)   100.0%
 T-DIPOLE    0.0567        C  9 --  H 22          +36.1% ( 61.2%)   100.0%
 TRAVEL      0.1202        C  9 --  C 10           +1.7% ( 13.1%)    17.3%
 RED. MASS   0.4909        C  5 --  C 10           +1.0% ( 10.0%)    36.7%
 EFF. MASS   1.5416

 VIBRATION   51   51A       ATOM PAIR        ENERGY CONTRIBUTION    RADIAL
 FREQ.      3034.28        C  9 --  H 22          +59.6% ( 78.1%)   100.0%
 T-DIPOLE    0.4006        C 10 --  H 21          +34.5% ( 59.4%)   100.0%
 TRAVEL      0.1226        C  6 --  H 18           +2.5% ( 15.9%)    99.7%
 RED. MASS   0.4642        C  9 --  C 10           +1.1% ( 10.6%)    19.8%
 EFF. MASS   1.4779

 VIBRATION   52   52A       ATOM PAIR        ENERGY CONTRIBUTION    RADIAL
 FREQ.      3039.35        C  6 --  H 18          +91.7% ( 97.3%)   100.0%
 T-DIPOLE    0.2301        C 10 --  H 21           +1.9% ( 14.0%)   100.0%
 TRAVEL      0.1206        C  6 --  C  9           +1.5% ( 12.6%)    38.4%
 RED. MASS   0.8344        C  2 --  H 14           +1.5% ( 12.4%)    98.1%
 EFF. MASS   1.5263

 VIBRATION   53   53A       ATOM PAIR        ENERGY CONTRIBUTION    RADIAL
 FREQ.      3045.05        C  5 --  H 17          +96.0% ( 99.4%)   100.0%
 T-DIPOLE    0.2643        C  5 --  C 10           +1.5% ( 12.6%)    40.1%
 TRAVEL      0.1208        C  1 --  C  5           +1.3% ( 11.7%)    14.0%
 RED. MASS   0.9087        C  9 --  H 22           +0.6% (  7.7%)   100.0%
 EFF. MASS   1.5180

 VIBRATION   54   54A       ATOM PAIR        ENERGY CONTRIBUTION    RADIAL
 FREQ.      3068.50        C  2 --  H 13          +49.3% ( 72.4%)    97.1%
 T-DIPOLE    0.0345        C  2 --  H 12          +48.9% ( 72.1%)    97.0%
 TRAVEL      0.1210        C  2 --  C  6           +1.0% ( 10.2%)     0.0%
 RED. MASS   0.5093        C  2 --  H 14           +0.9% (  9.9%)     0.0%
 EFF. MASS   1.5010

 VIBRATION   55   55A       ATOM PAIR        ENERGY CONTRIBUTION    RADIAL
 FREQ.      3075.60        C  2 --  H 14          +62.0% ( 81.2%)    98.8%
 T-DIPOLE    0.0764        C  2 --  H 12          +17.5% ( 43.1%)    85.2%
 TRAVEL      0.1206        C  2 --  H 13          +17.2% ( 42.8%)    84.9%
 RED. MASS   0.4730        C  6 --  H 18           +2.1% ( 15.0%)   100.0%
 EFF. MASS   1.5085

 VIBRATION   56   56A       ATOM PAIR        ENERGY CONTRIBUTION    RADIAL
 FREQ.      3131.98        C  7 --  H 19          +38.3% ( 63.5%)   100.0%
 T-DIPOLE    0.0665        C  8 --  H 20          +37.3% ( 62.6%)   100.0%
 TRAVEL      0.1201        C  3 --  H 15          +10.2% ( 32.7%)   100.0%
 RED. MASS   0.3119        C  4 --  H 16           +9.7% ( 32.0%)   100.0%
 EFF. MASS   1.4923

 VIBRATION   57   57A       ATOM PAIR        ENERGY CONTRIBUTION    RADIAL
 FREQ.      3134.70        C  8 --  H 20          +30.1% ( 56.1%)   100.0%
 T-DIPOLE    0.5289        C  7 --  H 19          +28.9% ( 55.0%)   100.0%
 TRAVEL      0.1208        C  4 --  H 16          +18.5% ( 44.0%)   100.0%
 RED. MASS   0.2452        C  3 --  H 15          +18.3% ( 43.8%)   100.0%
 EFF. MASS   1.4749

 VIBRATION   58   58A       ATOM PAIR        ENERGY CONTRIBUTION    RADIAL
 FREQ.      3147.77        C  3 --  H 15          +37.5% ( 63.0%)   100.0%
 T-DIPOLE    0.5910        C  4 --  H 16          +37.3% ( 62.8%)   100.0%
 TRAVEL      0.1161        C  7 --  H 19           +9.9% ( 32.4%)    99.8%
 RED. MASS   0.3123        C  8 --  H 20           +9.6% ( 31.9%)    99.8%
 EFF. MASS   1.5884

 VIBRATION   59   59A       ATOM PAIR        ENERGY CONTRIBUTION    RADIAL
 FREQ.      3157.03        C  4 --  H 16          +29.1% ( 55.5%)    99.9%
 T-DIPOLE    0.2097        C  3 --  H 15          +28.6% ( 55.1%)    99.9%
 TRAVEL      0.1122        C  8 --  H 20          +17.9% ( 43.6%)   100.0%
 RED. MASS   0.2473        C  7 --  H 19          +17.8% ( 43.4%)   100.0%
 EFF. MASS   1.6961

 VIBRATION   60   60A       ATOM PAIR        ENERGY CONTRIBUTION    RADIAL
 FREQ.      3168.73        C  2 --  H 14          +35.1% ( 57.1%)    97.3%
 T-DIPOLE    0.0953        C  2 --  H 12          +32.3% ( 54.8%)    97.0%
 TRAVEL      0.1367        C  2 --  H 13          +32.2% ( 54.6%)    97.0%
 RED. MASS   0.3274        C  2 --  C  6           +0.3% (  5.4%)   100.0%
 EFF. MASS   1.1394

 SYMMETRY NUMBER FOR POINT-GROUP C1  =  1


          SYSTEM IS A GROUND STATE


    NULL



          MOLECULE IS NOT LINEAR

          THERE ARE 60 GENUINE VIBRATIONS IN THIS SYSTEM
          THIS THERMODYNAMICS CALCULATION IS LIMITED TO
          MOLECULES WHICH HAVE NO INTERNAL ROTATIONS




                    CALCULATED THERMODYNAMIC PROPERTIES
                                          *
   TEMP. (K)   PARTITION FUNCTION   H.O.F.    ENTHALPY  HEAT CAPACITY ENTROPY
                                   KCAL/MOL   CAL/MOLE    CAL/K/MOL  CAL/K/MOL


 298.00  VIB.     0.6883D+03                  4548.2673    31.3773    28.2475
         ROT.     0.8128D+06                   888.2813     2.9808    30.0233
         INT.     0.5595D+09                  5436.5486    34.3581    58.2708
         TRA.     0.1470D+28                  1480.4688     4.9680    40.5480
         TOT.                       56.564    6917.0174    39.3261    98.8187

 200.00  VIB.     0.5573D+02                  2040.1207    20.1552    18.1901
         ROT.     0.4469D+06                   596.1620     2.9808    28.8346
         INT.     0.2490D+08                  2636.2826    23.1360    47.0247
         TRA.     0.8080D+27                   993.6033     4.9680    38.5668
         TOT.                       53.277    3629.8859    28.1040    85.5915

 210.00  VIB.     0.7202D+02                  2246.8155    21.1891    19.1983
         ROT.     0.4809D+06                   625.9700     2.9808    28.9801
         INT.     0.3463D+08                  2872.7855    24.1699    48.1784
         TRA.     0.8694D+27                  1043.2834     4.9680    38.8092
         TOT.                       53.563    3916.0689    29.1379    86.9876

 220.00  VIB.     0.9306D+02                  2464.0067    22.2543    20.2085
         ROT.     0.5156D+06                   655.7781     2.9808    29.1187
         INT.     0.4798D+08                  3119.7848    25.2351    49.3272
         TRA.     0.9322D+27                  1092.9636     4.9680    39.0403
         TOT.                       53.859    4212.7484    30.2031    88.3676

 230.00  VIB.     0.1202D+03                  2692.0021    23.3496    21.2218
         ROT.     0.5512D+06                   685.5862     2.9808    29.2512
         INT.     0.6626D+08                  3377.5883    26.3304    50.4730
         TRA.     0.9965D+27                  1142.6437     4.9680    39.2612
         TOT.                       54.167    4520.2321    31.2985    89.7342

 240.00  VIB.     0.1553D+03                  2931.0923    24.4729    22.2392
         ROT.     0.5875D+06                   715.3943     2.9808    29.3781
         INT.     0.9124D+08                  3646.4867    27.4537    51.6173
         TRA.     0.1062D+28                  1192.3239     4.9680    39.4726
         TOT.                       54.485    4838.8106    32.4217    91.0899

 250.00  VIB.     0.2006D+03                  3181.5433    25.6213    23.2614
         ROT.     0.6246D+06                   745.2024     2.9808    29.4998
         INT.     0.1253D+09                  3926.7458    28.6021    52.7612
         TRA.     0.1129D+28                  1242.0041     4.9680    39.6754
         TOT.                       54.815    5168.7498    33.5701    92.4366

 260.00  VIB.     0.2592D+03                  3443.5912    26.7917    24.2890
         ROT.     0.6624D+06                   775.0105     2.9808    29.6167
         INT.     0.1717D+09                  4218.6017    29.7725    53.9057
         TRA.     0.1198D+28                  1291.6842     4.9680    39.8703
         TOT.                       55.157    5510.2859    34.7405    93.7760

 270.00  VIB.     0.3350D+03                  3717.4383    27.9806    25.3224
         ROT.     0.7010D+06                   804.8186     2.9808    29.7292
         INT.     0.2349D+09                  4522.2569    30.9614    55.0516
         TRA.     0.1267D+28                  1341.3644     4.9680    40.0578
         TOT.                       55.510    5863.6213    35.9294    95.1093

 280.00  VIB.     0.4331D+03                  4003.2519    29.1844    26.3617
         ROT.     0.7403D+06                   834.6267     2.9808    29.8376
         INT.     0.3207D+09                  4837.8786    32.1652    56.1993
         TRA.     0.1338D+28                  1391.0445     4.9680    40.2384
         TOT.                       55.876    6228.9232    37.1332    96.4377

 290.00  VIB.     0.5601D+03                  4301.1630    30.3995    27.4070
         ROT.     0.7803D+06                   864.4348     2.9808    29.9422
         INT.     0.4371D+09                  5165.5978    33.3803    57.3492
         TRA.     0.1411D+28                  1440.7247     4.9680    40.4128
         TOT.                       56.253    6606.3225    38.3483    97.7619

 300.00  VIB.     0.7247D+03                  4611.2669    31.6223    28.4582
         ROT.     0.8210D+06                   894.2429     2.9808    30.0432
         INT.     0.5950D+09                  5505.5098    34.6031    58.5014
         TRA.     0.1484D+28                  1490.4049     4.9680    40.5812
         TOT.                       56.643    6995.9147    39.5712    99.0826

 310.00  VIB.     0.9381D+03                  4933.6244    32.8496    29.5151
         ROT.     0.8624D+06                   924.0510     2.9808    30.1410
         INT.     0.8090D+09                  5857.6754    35.8304    59.6560
         TRA.     0.1559D+28                  1540.0850     4.9680    40.7441
         TOT.                       57.044    7397.7605    40.7984   100.4001

 320.00  VIB.     0.1215D+04                  5268.2633    34.0781    30.5774
         ROT.     0.9045D+06                   953.8591     2.9808    30.2356
         INT.     0.1099D+10                  6222.1225    37.0589    60.8130
         TRA.     0.1635D+28                  1589.7652     4.9680    40.9018
         TOT.                       57.459    7811.8877    42.0269   101.7148

 330.00  VIB.     0.1574D+04                  5615.1810    35.3049    31.6448
         ROT.     0.9472D+06                   983.6672     2.9808    30.3273
         INT.     0.1491D+10                  6598.8482    38.2857    61.9722
         TRA.     0.1713D+28                  1639.4454     4.9680    41.0547
         TOT.                       57.885    8238.2935    43.2537   103.0269

 340.00  VIB.     0.2041D+04                  5974.3462    36.5272    32.7170
         ROT.     0.9906D+06                  1013.4753     2.9808    30.4163
         INT.     0.2022D+10                  6987.8215    39.5080    63.1333
         TRA.     0.1791D+28                  1689.1255     4.9680    41.2030
         TOT.                       58.324    8676.9470    44.4760   104.3363

 350.00  VIB.     0.2649D+04                  6345.7023    37.7427    33.7933
         ROT.     0.1035D+07                  1043.2834     2.9808    30.5027
         INT.     0.2740D+10                  7388.9857    40.7235    64.2961
         TRA.     0.1871D+28                  1738.8057     4.9680    41.3470
         TOT.                       58.774    9127.7914    45.6915   105.6431

 360.00  VIB.     0.3438D+04                  6729.1696    38.9491    34.8735
         ROT.     0.1079D+07                  1073.0915     2.9808    30.5867
         INT.     0.3711D+10                  7802.2611    41.9299    65.4602
         TRA.     0.1951D+28                  1788.4859     4.9680    41.4870
         TOT.                       59.237    9590.7469    46.8979   106.9472

 370.00  VIB.     0.4467D+04                  7124.6477    40.1446    35.9570
         ROT.     0.1125D+07                  1102.8996     2.9808    30.6684
         INT.     0.5023D+10                  8227.5473    43.1254    66.6254
         TRA.     0.2033D+28                  1838.1660     4.9680    41.6231
         TOT.                       59.712   10065.7133    48.0934   108.2485

 380.00  VIB.     0.5805D+04                  7532.0187    41.3274    37.0433
         ROT.     0.1170D+07                  1132.7077     2.9808    30.7479
         INT.     0.6795D+10                  8664.7264    44.3082    67.7912
         TRA.     0.2116D+28                  1887.8462     4.9680    41.7556
         TOT.                       60.199   10552.5726    49.2762   109.5468

 390.00  VIB.     0.7550D+04                  7951.1491    42.4962    38.1320
         ROT.     0.1217D+07                  1162.5158     2.9808    30.8253
         INT.     0.9188D+10                  9113.6649    45.4770    68.9573
         TRA.     0.2200D+28                  1937.5263     4.9680    41.8846
         TOT.                       60.698   11051.1912    50.4450   110.8419

 400.00  VIB.     0.9825D+04                  8381.8921    43.6498    39.2225
         ROT.     0.1264D+07                  1192.3239     2.9808    30.9008
         INT.     0.1242D+11                  9574.2160    46.6306    70.1232
         TRA.     0.2285D+28                  1987.2065     4.9680    42.0104
         TOT.                       61.208   11561.4225    51.5986   112.1336

   *: NOTE: HEATS OF FORMATION ARE RELATIVE TO THE
            ELEMENTS IN THEIR STANDARD STATE AT 298K
              (=  Standard Enthalpy of Formation).

            Hvib:  Zero-point energy is not included.
                   frequencies of less than zero cm-1 are not included.
            Hrot = (3/2)RT
            Htra = (3/2)RT + pV = (5/2)RT

            Heat capacity is Cp, not Cv

           For more information, see: HTTP://OpenMOPAC.net/Manual/thermochemistry.html


           FORCE CONSTANT IN CARTESIAN COORDINATES (Millidynes/A)

    ATOM   CHEMICAL       X               Y               Z
   NUMBER   SYMBOL  FORCE CONSTANT  FORCE CONSTANT  FORCE CONSTANT

      1       C       10.127423        7.576987        8.420887
      2       C        9.015561        8.028511        8.406976
      3       C       10.023741        9.377820        7.288354
      4       C       10.053667       11.616970        5.027513
      5       C       13.471354        3.876804        9.742331
      6       C       13.493717        3.822720        9.715917
      7       C       11.603947        9.532274        6.299202
      8       C       11.602289        9.257755        6.585603
      9       C       13.927004        3.717862        9.926883
     10       C       13.917868        3.715725        9.947324
     11       H        0.700074        1.231631        3.972273
     12       H        1.710331        4.283934        0.663587
     13       H        1.715524        2.385108        2.556490
     14       H        0.754114        1.429748        4.584705
     15       H        0.957422        3.731717        1.775317
     16       H        0.970301        4.756034        0.738665
     17       H        0.806519        1.119741        4.300683
     18       H        0.826539        1.125358        4.275158
     19       H        3.004772        2.810359        0.641361
     20       H        2.986453        1.176707        2.295719
     21       H        0.848092        1.112795        4.250612
     22       H        0.847842        1.119885        4.248009



 TOTAL CPU TIME:             3.64 SECONDS

 == MOPAC DONE ==
