 *******************************************************************************
 ** Site#: 14399           For non-commercial use only        Version 13.159M **
 *******************************************************************************
 ** Cite this work as: MOPAC2012, James J. P. Stewart, Stewart Computational  **
 ** Chemistry, Version 13.159M web: HTTP://OpenMOPAC.net  Days remaining:   6 **
 *******************************************************************************
 **                                                                           **
 **                                MOPAC2012                                  **
 **                                                                           **
 *******************************************************************************

                            PM3 CALCULATION RESULTS


 *******************************************************************************
 *  CALCULATION DONE:                                Mon Jun  2 11:04:37 2014  *
 *  PM3      - The PM3 Hamiltonian to be used
 *  PRECISE  - CRITERIA TO BE INCREASED BY 100 TIMES
 *  NOSYM    - POINT-GROUP SYMMETRY SET TO C1
 *  T=       - A TIME OF 172800.0 SECONDS REQUESTED
 *  DUMP=N   - RESTART FILE WRITTEN EVERY  7200.000 SECONDS
 *******************************************************************************
pm3  precise nosym
 InChI=1S/C5H8/c1-2-5-3-4-5/h2,5H,1,3-4H2

   ATOM   CHEMICAL          X               Y               Z
  NUMBER   SYMBOL      (ANGSTROMS)     (ANGSTROMS)     (ANGSTROMS)
 
     1       C         -0.22080000  *  -0.06030000  *  -0.68210000  *
     2       C         -1.53870000  *  -0.36530000  *  -0.10950000  *
     3       C         -1.00920000  *   0.93290000  *   0.31720000  *
     4       C          0.96230000  *  -0.73830000  *  -0.05810000  *
     5       C          2.06020000  *  -0.05910000  *   0.27850000  *
     6       H         -0.16190000  *   0.31940000  *  -1.72740000  *
     7       H         -2.37810000  *  -0.30190000  *  -0.83890000  *
     8       H         -1.57490000  *  -1.13590000  *   0.69540000  *
     9       H         -1.46750000  *   1.81690000  *  -0.18160000  *
    10       H         -0.64490000  *   0.96880000  *   1.36970000  *
    11       H          0.93370000  *  -1.81610000  *   0.09540000  *
    12       H          2.12920000  *   1.01680000  *   0.12470000  *
    13       H          2.91060000  *  -0.57800000  *   0.71670000  *
 


          CARTESIAN COORDINATES 

    NO.       ATOM         X         Y         Z

     1         C       -0.2208   -0.0603   -0.6821
     2         C       -1.5387   -0.3653   -0.1095
     3         C       -1.0092    0.9329    0.3172
     4         C        0.9623   -0.7383   -0.0581
     5         C        2.0602   -0.0591    0.2785
     6         H       -0.1619    0.3194   -1.7274
     7         H       -2.3781   -0.3019   -0.8389
     8         H       -1.5749   -1.1359    0.6954
     9         H       -1.4675    1.8169   -0.1816
    10         H       -0.6449    0.9688    1.3697
    11         H        0.9337   -1.8161    0.0954
    12         H        2.1292    1.0168    0.1247
    13         H        2.9106   -0.5780    0.7167

  H: (PM3): J. J. P. STEWART, J. COMP. CHEM. 10, 209 (1989).
  C: (PM3): J. J. P. STEWART, J. COMP. CHEM. 10, 209 (1989).

           Empirical Formula: C5 H8  =    13 atoms



      MOLECULAR POINT GROUP   :   C1  


      RHF CALCULATION, NO. OF DOUBLY OCCUPIED LEVELS =   14

      Geometry optimization using EF

          DIAGONAL MATRIX USED AS START HESSIAN

 CYCLE:     1 TIME:   0.003 TIME LEFT:  2.00D  GRAD.:   103.856 HEAT: 45.54086
 CYCLE:     2 TIME:   0.002 TIME LEFT:  2.00D  GRAD.:   161.579 HEAT: 45.34501
 CYCLE:     3 TIME:   0.004 TIME LEFT:  2.00D  GRAD.:    73.307 HEAT: 38.52782
 CYCLE:     4 TIME:   0.004 TIME LEFT:  2.00D  GRAD.:    83.986 HEAT: 37.79420
 CYCLE:     5 TIME:   0.002 TIME LEFT:  2.00D  GRAD.:    64.878 HEAT: 36.79867
 CYCLE:     6 TIME:   0.002 TIME LEFT:  2.00D  GRAD.:    59.231 HEAT: 35.80750
 CYCLE:     7 TIME:   0.004 TIME LEFT:  2.00D  GRAD.:    49.542 HEAT: 35.33894
 CYCLE:     8 TIME:   0.002 TIME LEFT:  2.00D  GRAD.:    31.302 HEAT: 35.02909
 CYCLE:     9 TIME:   0.002 TIME LEFT:  2.00D  GRAD.:    14.960 HEAT: 34.70055
 CYCLE:    10 TIME:   0.004 TIME LEFT:  2.00D  GRAD.:    17.069 HEAT: 34.62322
 CYCLE:    11 TIME:   0.002 TIME LEFT:  2.00D  GRAD.:    11.129 HEAT: 34.52366
 CYCLE:    12 TIME:   0.004 TIME LEFT:  2.00D  GRAD.:    14.308 HEAT: 34.50829
 CYCLE:    13 TIME:   0.002 TIME LEFT:  2.00D  GRAD.:     9.503 HEAT: 34.46040
 CYCLE:    14 TIME:   0.002 TIME LEFT:  2.00D  GRAD.:     9.612 HEAT: 34.43058
 CYCLE:    15 TIME:   0.002 TIME LEFT:  2.00D  GRAD.:    10.848 HEAT: 34.42984
 CYCLE:    16 TIME:   0.002 TIME LEFT:  2.00D  GRAD.:     5.371 HEAT: 34.39215
 CYCLE:    17 TIME:   0.003 TIME LEFT:  2.00D  GRAD.:     5.004 HEAT: 34.38475
 CYCLE:    18 TIME:   0.002 TIME LEFT:  2.00D  GRAD.:     3.043 HEAT: 34.37328
 CYCLE:    19 TIME:   0.002 TIME LEFT:  2.00D  GRAD.:     2.320 HEAT: 34.36406
 CYCLE:    20 TIME:   0.002 TIME LEFT:  2.00D  GRAD.:     2.899 HEAT: 34.35048
 CYCLE:    21 TIME:   0.002 TIME LEFT:  2.00D  GRAD.:     2.100 HEAT: 34.33938
 CYCLE:    22 TIME:   0.002 TIME LEFT:  2.00D  GRAD.:     1.374 HEAT: 34.33279
 CYCLE:    23 TIME:   0.002 TIME LEFT:  2.00D  GRAD.:     1.160 HEAT: 34.32744
 CYCLE:    24 TIME:   0.002 TIME LEFT:  2.00D  GRAD.:     1.035 HEAT: 34.32489
 CYCLE:    25 TIME:   0.002 TIME LEFT:  2.00D  GRAD.:     0.698 HEAT: 34.32351
 CYCLE:    26 TIME:   0.002 TIME LEFT:  2.00D  GRAD.:     0.415 HEAT: 34.32283
 CYCLE:    27 TIME:   0.002 TIME LEFT:  2.00D  GRAD.:     0.367 HEAT: 34.32251
 CYCLE:    28 TIME:   0.002 TIME LEFT:  2.00D  GRAD.:     0.274 HEAT: 34.32237
 CYCLE:    29 TIME:   0.002 TIME LEFT:  2.00D  GRAD.:     0.220 HEAT: 34.32226
 CYCLE:    30 TIME:   0.002 TIME LEFT:  2.00D  GRAD.:     0.255 HEAT: 34.32210
 CYCLE:    31 TIME:   0.002 TIME LEFT:  2.00D  GRAD.:     0.249 HEAT: 34.32198
 CYCLE:    32 TIME:   0.002 TIME LEFT:  2.00D  GRAD.:     0.202 HEAT: 34.32186
 CYCLE:    33 TIME:   0.002 TIME LEFT:  2.00D  GRAD.:     0.169 HEAT: 34.32180
 CYCLE:    34 TIME:   0.002 TIME LEFT:  2.00D  GRAD.:     0.183 HEAT: 34.32171
 CYCLE:    35 TIME:   0.002 TIME LEFT:  2.00D  GRAD.:     0.142 HEAT: 34.32168
 CYCLE:    36 TIME:   0.002 TIME LEFT:  2.00D  GRAD.:     0.096 HEAT: 34.32163
 CYCLE:    37 TIME:   0.002 TIME LEFT:  2.00D  GRAD.:     0.100 HEAT: 34.32160
 CYCLE:    38 TIME:   0.002 TIME LEFT:  2.00D  GRAD.:     0.069 HEAT: 34.32157
 CYCLE:    39 TIME:   0.002 TIME LEFT:  2.00D  GRAD.:     0.061 HEAT: 34.32155
 CYCLE:    40 TIME:   0.002 TIME LEFT:  2.00D  GRAD.:     0.057 HEAT: 34.32154
 CYCLE:    41 TIME:   0.002 TIME LEFT:  2.00D  GRAD.:     0.093 HEAT: 34.32154
 CYCLE:    42 TIME:   0.002 TIME LEFT:  2.00D  GRAD.:     0.053 HEAT: 34.32153
 CYCLE:    43 TIME:   0.002 TIME LEFT:  2.00D  GRAD.:     0.022 HEAT: 34.32152

     RMS GRADIENT =  0.02156  IS LESS THAN CUTOFF =  0.05000



 -------------------------------------------------------------------------------
pm3  precise nosym
 InChI=1S/C5H8/c1-2-5-3-4-5/h2,5H,1,3-4H2



     GEOMETRY OPTIMISED USING EIGENVECTOR FOLLOWING (EF).     
     SCF FIELD WAS ACHIEVED                                   


                              PM3 CALCULATION
                                                       MOPAC2012 (Version: 13.159M)
                                                       Mon Jun  2 11:04:37 2014
                                                       No. of days left =   6




          FINAL HEAT OF FORMATION =         34.32152 KCAL/MOL =     143.60124 KJ/MOL


          TOTAL ENERGY            =       -714.37519 EV
          ELECTRONIC ENERGY       =      -2769.51761 EV  POINT GROUP:     C1  
          CORE-CORE REPULSION     =       2055.14242 EV
          COSMO AREA              =        120.53 SQUARE ANGSTROMS
          COSMO VOLUME            =        107.55 CUBIC ANGSTROMS

          GRADIENT NORM           =          0.02156
          IONIZATION POTENTIAL    =         10.161929 EV
          HOMO LUMO ENERGIES (EV) =        -10.162  1.134
          NO. OF FILLED LEVELS    =         14
          MOLECULAR WEIGHT        =         68.118

          MOLECULAR DIMENSIONS (Angstroms)

            Atom       Atom       Distance
            H    13    H     7     5.57560
            H    11    H     9     3.62325
            H    10    H     6     2.88514


          SCF CALCULATIONS        =         49
          COMPUTATION TIME        =          0.111 SECONDS




   ATOM   CHEMICAL          X               Y               Z
  NUMBER   SYMBOL      (ANGSTROMS)     (ANGSTROMS)     (ANGSTROMS)
 
     1       C         -0.21794105  *  -0.01077405  *  -0.60614538  *
     2       C         -1.58125216  *  -0.39744061  *  -0.10292123  *
     3       C         -0.99752135  *   0.92932485  *   0.27270676  *
     4       C          0.97070370  *  -0.70811535  *  -0.08037088  *
     5       C          2.07893494  *  -0.07210337  *   0.28042732  *
     6       H         -0.09822830  *   0.23924809  *  -1.67657334  *
     7       H         -2.42423248  *  -0.44950301  *  -0.80012409  *
     8       H         -1.67865509  *  -1.18448464  *   0.65351416  *
     9       H         -1.41140874  *   1.85103831  *  -0.14993199  *
    10       H         -0.66973593  *   1.11031774  *   1.30248513  *
    11       H          0.88870056  *  -1.79992824  *  -0.01916021  *
    12       H          2.18517473  *   1.00783783  *   0.23266959  *
    13       H          2.95760900  *  -0.59151113  *   0.65003068  *

           Empirical Formula: C5 H8  =    13 atoms



      MOLECULAR POINT GROUP   :   C1  


                  EIGENVALUES  
 -39.36907 -31.52943 -22.98182 -22.09027 -19.21213 -17.04226 -16.72563 -15.63279
 -13.60941 -12.33053 -12.26305 -11.97078 -11.39258 -10.16193   1.13428   2.93148
   3.16469   3.32362   3.50549   3.76621   4.02242   4.18335   4.59493   4.87483
   4.89861   4.93737   5.63976   5.83826


              NET ATOMIC CHARGES AND DIPOLE CONTRIBUTIONS

  ATOM NO.   TYPE          CHARGE      No. of ELECS.   s-Pop       p-Pop       
    1          C          -0.108007        4.1080     1.16157     2.94643
    2          C          -0.148897        4.1489     1.16126     2.98764
    3          C          -0.144884        4.1449     1.16073     2.98416
    4          C          -0.110013        4.1100     1.18573     2.92429
    5          C          -0.161112        4.1611     1.18114     2.97997
    6          H           0.099709        0.9003     0.90029
    7          H           0.075812        0.9242     0.92419
    8          H           0.079592        0.9204     0.92041
    9          H           0.075457        0.9245     0.92454
   10          H           0.080842        0.9192     0.91916
   11          H           0.099206        0.9008     0.90079
   12          H           0.082876        0.9171     0.91712
   13          H           0.079418        0.9206     0.92058
 DIPOLE           X         Y         Z       TOTAL
 POINT-CHG.    -0.105    -0.009    -0.038     0.112
 HYBRID        -0.004     0.012     0.009     0.016
 SUM           -0.110     0.003    -0.029     0.113


          ATOMIC ORBITAL ELECTRON POPULATIONS

    Atom      s        px        py        pz   
    1  C   1.16157   0.92470   1.03204   0.98970
    2  C   1.16126   0.96430   0.98856   1.03477
    3  C   1.16073   1.03697   0.94122   1.00597
    4  C   1.18573   0.94907   0.98530   0.98992
    5  C   1.18114   0.97008   1.00231   1.00758
    6  H   0.90029
    7  H   0.92419
    8  H   0.92041
    9  H   0.92454
   10  H   0.91916
   11  H   0.90079
   12  H   0.91712
   13  H   0.92058
 *******************************************************************************
 ** Site#: 14399           For non-commercial use only        Version 13.159M **
 *******************************************************************************
 ** Cite this work as: MOPAC2012, James J. P. Stewart, Stewart Computational  **
 ** Chemistry, Version 13.159M web: HTTP://OpenMOPAC.net  Days remaining:   6 **
 *******************************************************************************
 **                                                                           **
 **                                MOPAC2012                                  **
 **                                                                           **
 *******************************************************************************

                            PM3 CALCULATION RESULTS


 *******************************************************************************
 *  CALCULATION DONE:                                Mon Jun  2 11:04:37 2014  *
 *  PM3      - The PM3 Hamiltonian to be used
 *  OLDGEO   - PREVIOUS GEOMETRY TO BE USED
 *  PRECISE  - CRITERIA TO BE INCREASED BY 100 TIMES
 *  NOSYM    - POINT-GROUP SYMMETRY SET TO C1
 *  T=       - A TIME OF 172800.0 SECONDS REQUESTED
 *  DUMP=N   - RESTART FILE WRITTEN EVERY  7200.000 SECONDS
 *  THERMO   - THERMODYNAMIC QUANTITIES TO BE CALCULATED
 *******************************************************************************
oldgeo thermo nosym precise  pm3

   ATOM   CHEMICAL          X               Y               Z
  NUMBER   SYMBOL      (ANGSTROMS)     (ANGSTROMS)     (ANGSTROMS)
 
     1       C         -0.21794105  *  -0.01077405  *  -0.60614538  *
     2       C         -1.58125216  *  -0.39744061  *  -0.10292123  *
     3       C         -0.99752135  *   0.92932485  *   0.27270676  *
     4       C          0.97070370  *  -0.70811535  *  -0.08037088  *
     5       C          2.07893494  *  -0.07210337  *   0.28042732  *
     6       H         -0.09822830  *   0.23924809  *  -1.67657334  *
     7       H         -2.42423248  *  -0.44950301  *  -0.80012409  *
     8       H         -1.67865509  *  -1.18448464  *   0.65351416  *
     9       H         -1.41140874  *   1.85103831  *  -0.14993199  *
    10       H         -0.66973593  *   1.11031774  *   1.30248513  *
    11       H          0.88870056  *  -1.79992824  *  -0.01916021  *
    12       H          2.18517473  *   1.00783783  *   0.23266959  *
    13       H          2.95760900  *  -0.59151113  *   0.65003068  *
 


          CARTESIAN COORDINATES 

    NO.       ATOM         X         Y         Z

     1         C       -0.2179   -0.0108   -0.6061
     2         C       -1.5813   -0.3974   -0.1029
     3         C       -0.9975    0.9293    0.2727
     4         C        0.9707   -0.7081   -0.0804
     5         C        2.0789   -0.0721    0.2804
     6         H       -0.0982    0.2392   -1.6766
     7         H       -2.4242   -0.4495   -0.8001
     8         H       -1.6787   -1.1845    0.6535
     9         H       -1.4114    1.8510   -0.1499
    10         H       -0.6697    1.1103    1.3025
    11         H        0.8887   -1.7999   -0.0192
    12         H        2.1852    1.0078    0.2327
    13         H        2.9576   -0.5915    0.6500

  H: (PM3): J. J. P. STEWART, J. COMP. CHEM. 10, 209 (1989).
  C: (PM3): J. J. P. STEWART, J. COMP. CHEM. 10, 209 (1989).

           Empirical Formula: C5 H8  =    13 atoms



      MOLECULAR POINT GROUP   :   C1  


      RHF CALCULATION, NO. OF DOUBLY OCCUPIED LEVELS =   14



          HEAT OF FORMATION =      34.321521 KCALS/MOLE


          INTERNAL COORDINATE DERIVATIVES

   NUMBER  ATOM       BOND         ANGLE      DIHEDRAL

     1       C     -0.000247     0.000734     0.000656
     2       C     -0.000266     0.000399    -0.000781
     3       C      0.005446    -0.001413    -0.000241
     4       C     -0.003501     0.003271     0.001269
     5       C     -0.007133    -0.005075    -0.002718
     6       H     -0.000969     0.005418     0.002274
     7       H     -0.007820    -0.004147    -0.002380
     8       H      0.004016    -0.000313     0.000945
     9       H     -0.000360    -0.002543    -0.003567
    10       H      0.003290     0.004690     0.002229
    11       H      0.010095     0.002072    -0.000352
    12       H      0.001906     0.000489     0.005573
    13       H     -0.004457    -0.003582    -0.002907


          GRADIENT NORM =   0.02277


          TIME FOR SCF CALCULATION =    0.00

          TIME FOR DERIVATIVES     =    0.00

          MOLECULAR WEIGHT =   68.12



          ROTATIONAL CONSTANTS IN CM(-1)

          A =    0.43255462   B =    0.11689827   C =    0.10347627



           PRINCIPAL MOMENTS OF INERTIA IN UNITS OF 10**(-40)*GRAM-CM**2

          A =       64.7150   B =      239.4627   C =      270.5236


          ORIENTATION OF MOLECULE IN FORCE CALCULATION

    NO.       ATOM         X         Y         Z

     1          C       0.0365   -0.2265    0.5807
     2          C       1.5403   -0.2265    0.5807
     3          C       0.7956    1.0726    0.5807
     4          C      -0.6858   -0.6667   -0.6276
     5          C      -1.7334   -0.0152   -1.1188
     6          H      -0.4945   -0.5313    1.5015
     7          H       2.0846   -0.5481    1.4750
     8          H       2.0841   -0.5437   -0.3164
     9          H       0.7924    1.7039    1.4757
    10          H       0.7965    1.7030   -0.3155
    11          H      -0.3103   -1.5856   -1.0935
    12          H      -2.1233    0.8981   -0.6788
    13          H      -2.2727   -0.3532   -1.9982


    FIRST DERIVATIVES WILL BE USED IN THE CALCULATION OF SECOND DERIVATIVES

          ESTIMATED TIME TO COMPLETE CALCULATION =        0.46 SECONDS

    FOR POINT-GROUP C1   THERE ARE   1 UNIQUE SYMMETRY FUNCTIONS.

 STEP:   1 TIME =     0.01 SECS, INTEGRAL =      0.01 TIME LEFT: 172799.99
 STEP:   2 TIME =     0.01 SECS, INTEGRAL =      0.02 TIME LEFT: 172799.98
 STEP:   3 TIME =     0.01 SECS, INTEGRAL =      0.03 TIME LEFT: 172799.96
 STEP:   4 TIME =     0.01 SECS, INTEGRAL =      0.04 TIME LEFT: 172799.95
 STEP:   5 TIME =     0.01 SECS, INTEGRAL =      0.05 TIME LEFT: 172799.94
 STEP:   6 TIME =     0.01 SECS, INTEGRAL =      0.06 TIME LEFT: 172799.94
 STEP:   7 TIME =     0.01 SECS, INTEGRAL =      0.07 TIME LEFT: 172799.93
 STEP:   8 TIME =     0.01 SECS, INTEGRAL =      0.08 TIME LEFT: 172799.92
 STEP:   9 TIME =     0.01 SECS, INTEGRAL =      0.09 TIME LEFT: 172799.91
 STEP:  10 TIME =     0.01 SECS, INTEGRAL =      0.10 TIME LEFT: 172799.90
 STEP:  11 TIME =     0.01 SECS, INTEGRAL =      0.11 TIME LEFT: 172799.89
 STEP:  12 TIME =     0.01 SECS, INTEGRAL =      0.12 TIME LEFT: 172799.88
 STEP:  13 TIME =     0.01 SECS, INTEGRAL =      0.13 TIME LEFT: 172799.87
 STEP:  14 TIME =     0.01 SECS, INTEGRAL =      0.14 TIME LEFT: 172799.86
 STEP:  15 TIME =     0.01 SECS, INTEGRAL =      0.15 TIME LEFT: 172799.85
 STEP:  16 TIME =     0.01 SECS, INTEGRAL =      0.16 TIME LEFT: 172799.84
 STEP:  17 TIME =     0.01 SECS, INTEGRAL =      0.17 TIME LEFT: 172799.83
 STEP:  18 TIME =     0.01 SECS, INTEGRAL =      0.18 TIME LEFT: 172799.82
 STEP:  19 TIME =     0.01 SECS, INTEGRAL =      0.19 TIME LEFT: 172799.81
 STEP:  20 TIME =     0.01 SECS, INTEGRAL =      0.20 TIME LEFT: 172799.80
 STEP:  21 TIME =     0.01 SECS, INTEGRAL =      0.21 TIME LEFT: 172799.79
 STEP:  22 TIME =     0.01 SECS, INTEGRAL =      0.22 TIME LEFT: 172799.78
 STEP:  23 TIME =     0.01 SECS, INTEGRAL =      0.23 TIME LEFT: 172799.77
 STEP:  24 TIME =     0.01 SECS, INTEGRAL =      0.24 TIME LEFT: 172799.76
 STEP:  25 TIME =     0.01 SECS, INTEGRAL =      0.25 TIME LEFT: 172799.75
 STEP:  26 TIME =     0.01 SECS, INTEGRAL =      0.26 TIME LEFT: 172799.74
 STEP:  27 TIME =     0.01 SECS, INTEGRAL =      0.27 TIME LEFT: 172799.73
 STEP:  28 TIME =     0.01 SECS, INTEGRAL =      0.27 TIME LEFT: 172799.72
 STEP:  29 TIME =     0.01 SECS, INTEGRAL =      0.29 TIME LEFT: 172799.71
 STEP:  30 TIME =     0.01 SECS, INTEGRAL =      0.30 TIME LEFT: 172799.70
 STEP:  31 TIME =     0.01 SECS, INTEGRAL =      0.31 TIME LEFT: 172799.69
 STEP:  32 TIME =     0.01 SECS, INTEGRAL =      0.32 TIME LEFT: 172799.68
 STEP:  33 TIME =     0.01 SECS, INTEGRAL =      0.33 TIME LEFT: 172799.67
 STEP:  34 TIME =     0.01 SECS, INTEGRAL =      0.34 TIME LEFT: 172799.66
 STEP:  35 TIME =     0.01 SECS, INTEGRAL =      0.35 TIME LEFT: 172799.65
 STEP:  36 TIME =     0.01 SECS, INTEGRAL =      0.36 TIME LEFT: 172799.64
 STEP:  37 TIME =     0.01 SECS, INTEGRAL =      0.37 TIME LEFT: 172799.63
 STEP:  38 TIME =     0.01 SECS, INTEGRAL =      0.38 TIME LEFT: 172799.62
 STEP:  39 TIME =     0.01 SECS, INTEGRAL =      0.39 TIME LEFT: 172799.61

(To convert to Hartree/Bohr^2, multiply by (10^(-21) x N x a0^2)/(4.184 x 627.51) = 0.0642)


           FORCE MATRIX IN MILLIDYNES/ANGSTROM


                  C  1       C  2       C  3       C  4       C  5       H  6
 ------------------------------------------------------------------------------
     C    1  15.906855
     C    2   4.858301  15.413439
     C    3   4.801636   5.128131  15.382044
     C    4   5.320817   0.576602   0.566112  18.359324
     C    5   0.856507   0.052472   0.024704  11.077814  18.046958
     H    6   4.543938   0.442101   0.444456   0.395633   0.023016   5.055101
     H    7   0.452423   4.845570   0.459817   0.044587   0.008142   0.020178
     H    8   0.466621   4.823610   0.462112   0.021439   0.004547   0.038606
     H    9   0.453285   0.460216   4.844013   0.043466   0.003764   0.020372
     H   10   0.464175   0.461324   4.831735   0.021887   0.005026   0.038339
     H   11   0.435674   0.015676   0.035401   4.792160   0.457081   0.014112
     H   12   0.100302   0.004096   0.010608   0.495589   5.094368   0.011204
     H   13   0.134583   0.010512   0.011701   0.460345   5.109090   0.013717


                  H  7       H  8       H  9       H 10       H 11       H 12
 ------------------------------------------------------------------------------
     H    7   5.451573
     H    8   0.495010   5.431938
     H    9   0.020532   0.042149   5.450437
     H   10   0.041924   0.021309   0.495780   5.438583
     H   11   0.002604   0.009322   0.005899   0.003807   5.154617
     H   12   0.001021   0.000777   0.001943   0.002741   0.117668   5.481480
     H   13   0.001453   0.000993   0.001220   0.001873   0.078140   0.418959


                  H 13
 ------------------
     H   13   5.495995


          HEAT OF FORMATION =      34.321521 KCALS/MOLE

          ZERO POINT ENERGY      71.238 KCAL/MOL


           NORMAL COORDINATE ANALYSIS (Total motion = 1 Angstrom)


   Root No.       1         2         3         4         5         6         7         8

                 1 A       2 A       3 A       4 A       5 A       6 A       7 A       8 A   

                  83.9     242.2     357.9     489.3     653.5     813.4     864.6     868.9
  
           1    0.0037   -0.0081   -0.0230    0.0274    0.0014   -0.0054   -0.0137   -0.0039
           2   -0.0233    0.0358   -0.0029   -0.0351    0.0049   -0.0033   -0.0089    0.0016
           3    0.0195    0.0115    0.0520    0.0227   -0.0178    0.0083    0.0279    0.0043
           4    0.0038   -0.0067   -0.0246    0.0415    0.0095    0.0069    0.0122   -0.0157
           5    0.0195   -0.0124   -0.0136    0.0077    0.0140    0.0121    0.0187    0.0042
           6   -0.0374   -0.0367   -0.0284    0.0182    0.0019    0.0016    0.0199   -0.0062
           7   -0.0338    0.0349   -0.0157   -0.0054    0.0215    0.0145    0.0185    0.0118
           8   -0.0019    0.0110   -0.0074   -0.0220    0.0112    0.0011   -0.0066    0.0149
           9    0.0058    0.0487   -0.0223   -0.0122    0.0032    0.0014    0.0157    0.0133
          10   -0.0242   -0.0106    0.0317   -0.0305   -0.0468   -0.0087   -0.0112   -0.0013
          11   -0.0337    0.0162    0.0202    0.0497   -0.0499   -0.0128   -0.0130   -0.0040
          12    0.0400    0.0204    0.0115    0.0223    0.0229   -0.0174   -0.0212   -0.0047
          13    0.0486   -0.0143    0.0259   -0.0345   -0.0021   -0.0101   -0.0151   -0.0013
          14    0.0354   -0.0382    0.0015    0.0047    0.0025   -0.0039   -0.0079   -0.0068
          15   -0.0230   -0.0402    0.0033   -0.0374   -0.0084   -0.0131   -0.0239   -0.0065
          16    0.0451    0.0037   -0.0159    0.0690    0.0276   -0.0215   -0.0300    0.0741
          17   -0.0506    0.0285    0.0098   -0.0774    0.0482   -0.0038    0.0273   -0.1404
          18    0.0343    0.0161    0.0566    0.0321    0.0132   -0.0031    0.0281    0.0019
          19    0.0471    0.0197    0.0348    0.0412   -0.0134    0.0370    0.1485   -0.1397
          20    0.0252   -0.0746    0.0134    0.0583   -0.0144    0.2003    0.0121   -0.1073
          21   -0.0618   -0.0757   -0.0560    0.0380    0.0063    0.0558   -0.0709    0.0325
          22   -0.0212   -0.0551   -0.0917    0.0720    0.0398   -0.0085   -0.0842    0.0904
          23    0.0455    0.0115   -0.0524    0.0067    0.0486   -0.1542    0.0856    0.0815
          24   -0.0617   -0.0753   -0.0567    0.0386    0.0082    0.0554   -0.0685    0.0341
          25   -0.0175    0.0823    0.0492   -0.0109   -0.0170    0.1899    0.0103    0.1781
          26   -0.0117   -0.0394    0.0195    0.0222   -0.0103   -0.0726    0.0815    0.1076
          27    0.0127    0.0852   -0.0418   -0.0448    0.0197    0.0591   -0.0501   -0.0568
          28   -0.0873    0.0338   -0.0752   -0.0493    0.0883   -0.1342    0.0750   -0.0967
          29    0.0080    0.0617   -0.0354   -0.0655    0.0363    0.0764   -0.0902   -0.0786
          30    0.0124    0.0852   -0.0428   -0.0445    0.0222    0.0588   -0.0473   -0.0580
          31   -0.1057    0.0061    0.1201   -0.0240    0.0001   -0.0130    0.0201    0.0110
          32   -0.1022   -0.0010    0.0863    0.0649   -0.0027   -0.0135    0.0142   -0.0085
          33    0.1097    0.0642   -0.0486   -0.0075   -0.0315   -0.0189   -0.0486    0.0140
          34    0.1307   -0.0556   -0.0620   -0.1365   -0.1112    0.0333    0.0858    0.0359
          35    0.1034   -0.0238   -0.0652   -0.0097   -0.1156   -0.0051    0.0113   -0.0098
          36   -0.0913   -0.1083    0.0636   -0.1017    0.1413    0.0311    0.0314    0.0348
          37    0.0333    0.0214    0.1080    0.0566    0.1815   -0.0499   -0.1142   -0.0303
          38    0.0306   -0.1093    0.0498   -0.0588    0.2148    0.0536    0.0695    0.0386
          39   -0.0118   -0.0355   -0.0654   -0.0719   -0.2022   -0.0105    0.0077   -0.0051


   Root No.       9        10        11        12        13        14        15        16

                 9 A      10 A      11 A      12 A      13 A      14 A      15 A      16 A   

                 925.3     953.6     977.4    1008.0    1034.0    1085.6    1118.8    1156.7
  
           1    0.0028   -0.0041   -0.0134   -0.0294   -0.0234   -0.0217   -0.0013    0.0030
           2    0.0063    0.0232   -0.0160   -0.0125    0.0046    0.0442    0.0094    0.0402
           3    0.0003    0.0006   -0.0058    0.0175    0.0029   -0.0303   -0.0151   -0.0110
           4    0.0061    0.0356   -0.0048   -0.0087   -0.0010    0.0230    0.0025    0.0048
           5   -0.0038   -0.0123    0.0151    0.0152    0.0061   -0.0051    0.0000   -0.0408
           6    0.0087   -0.0045    0.0073   -0.0184   -0.0116   -0.0119    0.0476    0.0160
           7   -0.0048   -0.0179    0.0113    0.0066   -0.0016   -0.0072   -0.0059   -0.0602
           8   -0.0041   -0.0300   -0.0078   -0.0205   -0.0228   -0.0244   -0.0035   -0.0037
           9    0.0084   -0.0026    0.0042   -0.0166   -0.0048    0.0303   -0.0435    0.0042
          10    0.0274   -0.0016    0.0015   -0.0005    0.0192   -0.0171   -0.0078    0.0043
          11    0.0252    0.0072   -0.0182    0.0038    0.0243   -0.0171    0.0032   -0.0120
          12   -0.0276    0.0061   -0.0111    0.0065   -0.0083    0.0149    0.0149   -0.0212
          13    0.0047   -0.0042    0.0075    0.0204   -0.0253    0.0149    0.0023   -0.0014
          14    0.0047   -0.0075    0.0182    0.0145   -0.0264    0.0176    0.0039    0.0051
          15   -0.0077   -0.0105    0.0270   -0.0197    0.0280    0.0032   -0.0029    0.0065
          16   -0.0451   -0.0847   -0.1177    0.0130   -0.0413   -0.0527   -0.0194    0.2485
          17   -0.0084    0.2073    0.0856   -0.0104   -0.0679   -0.1150   -0.1458    0.0568
          18   -0.0337    0.0160   -0.0343    0.0442   -0.0323   -0.1041   -0.0792    0.1425
          19    0.0599   -0.0195    0.0286   -0.0485    0.0076    0.0600    0.0922    0.1059
          20   -0.0021   -0.0719    0.0096    0.0778    0.0863    0.1034   -0.1022    0.0484
          21   -0.0260    0.0082   -0.0166    0.0311    0.0124    0.0040   -0.0488   -0.0140
          22   -0.0522    0.1212    0.0159    0.1177    0.0644    0.0169   -0.0878    0.0292
          23   -0.0092    0.0964    0.1183    0.1066    0.0617   -0.0640    0.1025    0.0447
          24   -0.0268    0.0106   -0.0182    0.0296    0.0100    0.0055   -0.0484    0.0011
          25    0.0022   -0.0027    0.1388    0.0289    0.0242   -0.0185    0.0953    0.1521
          26    0.0380   -0.0454    0.0116   -0.0800   -0.0351    0.0645   -0.1127    0.0052
          27   -0.0235    0.0095   -0.0102    0.0280    0.0039   -0.0365    0.0367   -0.0006
          28   -0.0429   -0.1675   -0.0335    0.1568    0.1042   -0.0041   -0.0398    0.0917
          29   -0.0486   -0.0161   -0.0281    0.0357   -0.0174   -0.1226    0.0993   -0.0046
          30   -0.0253    0.0072   -0.0112    0.0262   -0.0006   -0.0438    0.0316    0.0043
          31   -0.2129    0.0545   -0.0663    0.0244    0.0031    0.1317    0.0892   -0.0286
          32   -0.1948    0.0126   -0.0108    0.0000   -0.0402    0.0289    0.0164   -0.0178
          33    0.2137    0.0432   -0.0819    0.0347    0.1071    0.0437    0.0672   -0.0366
          34   -0.1395    0.0542   -0.1018   -0.0580    0.1121   -0.0477    0.0011   -0.0278
          35   -0.1299   -0.0045    0.0268   -0.0703    0.0815   -0.0178   -0.0082    0.0109
          36    0.1444    0.0394   -0.0954    0.0877   -0.0734    0.0198    0.0221   -0.0298
          37    0.0004   -0.0493    0.1096   -0.0972    0.1083    0.0105   -0.0079    0.0191
          38    0.0179    0.0535   -0.1080   -0.0662    0.1000   -0.0603   -0.0033   -0.0102
          39   -0.0100   -0.0045    0.0099    0.0843   -0.1010    0.0373    0.0074   -0.0017


   Root No.      17        18        19        20        21        22        23        24

                17 A      18 A      19 A      20 A      21 A      22 A      23 A      24 A   

                1158.3    1174.0    1200.3    1280.3    1328.9    1399.6    1412.5    1598.2
  
           1    0.0523   -0.0073    0.0071    0.0051    0.0095   -0.0022   -0.0299    0.1163
           2   -0.0352    0.0122   -0.0409    0.0080    0.0072    0.0027   -0.0184    0.0678
           3   -0.0251   -0.0006   -0.0128    0.0427   -0.0219   -0.0006   -0.0353    0.0446
           4   -0.0375   -0.0377   -0.0157    0.0175   -0.0143    0.0288   -0.0161   -0.0930
           5   -0.0399   -0.0444    0.0168   -0.0274    0.0132   -0.0141    0.0190    0.0512
           6   -0.0048    0.0070    0.0040   -0.0104    0.0032    0.0003    0.0048   -0.0041
           7   -0.0264    0.0522    0.0163   -0.0128    0.0043   -0.0017    0.0079   -0.0015
           8    0.0311    0.0103    0.0036    0.0280   -0.0194   -0.0334   -0.0225   -0.1052
           9    0.0134   -0.0042    0.0081   -0.0082    0.0035   -0.0001    0.0041   -0.0031
          10   -0.0067    0.0010   -0.0045    0.0075    0.0187    0.0001    0.0080    0.0017
          11    0.0199   -0.0043   -0.0154   -0.0279    0.0026   -0.0001    0.0181   -0.0300
          12    0.0324   -0.0064   -0.0340   -0.0166    0.0252    0.0002    0.0227   -0.0174
          13    0.0025    0.0008   -0.0201   -0.0052    0.0165    0.0007    0.0164   -0.0281
          14   -0.0081    0.0008    0.0290    0.0092   -0.0135   -0.0003   -0.0135    0.0196
          15   -0.0134    0.0029    0.0101    0.0034    0.0038    0.0004    0.0051   -0.0134
          16   -0.1258    0.0827    0.0953   -0.1059    0.0354    0.0039    0.0436   -0.0228
          17    0.0748   -0.0490    0.1217   -0.0692    0.0163   -0.0047    0.0264   -0.0142
          18   -0.0929    0.0323    0.0942   -0.0487   -0.0041    0.0006    0.0237   -0.0698
          19    0.0495    0.0949   -0.0255    0.0338   -0.0605   -0.1563    0.1270    0.0064
          20    0.1244    0.1596   -0.0034   -0.0364    0.0480    0.0856   -0.0618   -0.0198
          21    0.0006   -0.0004    0.0028   -0.0199    0.0392    0.1383   -0.1042   -0.0871
          22    0.0275    0.0681   -0.0540    0.1051   -0.0867   -0.1569    0.0907    0.0370
          23    0.0733    0.1741   -0.0236   -0.0100    0.0367    0.0876   -0.0784   -0.0086
          24   -0.0064   -0.0061   -0.0056    0.0349   -0.0456   -0.1381    0.0956    0.0942
          25    0.1040   -0.1698    0.0000   -0.0197    0.0105    0.0048    0.0109   -0.0144
          26    0.0759    0.0029    0.0190    0.0507   -0.0771    0.1841    0.1344    0.0167
          27   -0.0203    0.0005   -0.0032   -0.0206    0.0395   -0.1426   -0.0998   -0.0859
          28    0.0722   -0.1783   -0.0267    0.0362   -0.0125    0.0014   -0.0212    0.0092
          29   -0.0024    0.0263   -0.0114    0.0898   -0.0948    0.1840    0.1132    0.0338
          30   -0.0110    0.0071   -0.0019    0.0335   -0.0462    0.1421    0.0914    0.0932
          31    0.0506   -0.0105    0.2864    0.0371   -0.0258   -0.0017   -0.0213    0.0141
          32    0.0364   -0.0065   -0.0557   -0.0322    0.0108    0.0004    0.0193   -0.0245
          33    0.0471   -0.0119    0.2709    0.0114   -0.0263   -0.0022    0.0009   -0.0273
          34    0.0428   -0.0055   -0.0846   -0.1416   -0.1337   -0.0012   -0.0243    0.0037
          35   -0.0223    0.0022    0.0414    0.0220   -0.0007   -0.0004   -0.0090    0.0137
          36    0.0532   -0.0064   -0.0668   -0.1299   -0.1384   -0.0012   -0.0363    0.0292
          37   -0.0333    0.0102    0.0104   -0.0902   -0.1394   -0.0006   -0.0431    0.0202
          38    0.0232   -0.0074   -0.0055    0.1080    0.1788    0.0013    0.0606   -0.0374
          39   -0.0014    0.0001    0.0025    0.0088    0.0170    0.0006    0.0126   -0.0251


   Root No.      25        26        27        28        29        30        31        32

                25 A      26 A      27 A      28 A      29 A      30 A      31 A      32 A   

                1865.3    2998.6    3042.0    3084.3    3098.5    3134.3    3135.6    3140.6
  
           1   -0.0387    0.0327    0.0007    0.0000    0.0012    0.0002    0.0010    0.0005
           2   -0.0132    0.0186    0.0000    0.0000    0.0007    0.0006    0.0003   -0.0001
           3   -0.0369   -0.0536   -0.0008   -0.0001   -0.0026   -0.0001   -0.0002    0.0002
           4    0.0079   -0.0004    0.0001    0.0012    0.0015   -0.0274   -0.0110   -0.0003
           5   -0.0052    0.0008   -0.0002   -0.0006   -0.0008    0.0162    0.0062    0.0002
           6   -0.0013    0.0037    0.0000   -0.0318   -0.0290   -0.0030   -0.0015    0.0002
           7    0.0016    0.0005    0.0003   -0.0001    0.0001   -0.0003    0.0000    0.0001
           8    0.0085   -0.0007    0.0001   -0.0007    0.0010    0.0112   -0.0324   -0.0001
           9    0.0029    0.0036   -0.0002    0.0298   -0.0310    0.0001   -0.0020    0.0000
          10    0.1870   -0.0007    0.0272    0.0002    0.0002    0.0002    0.0001   -0.0023
          11   -0.0789    0.0011   -0.0591   -0.0003    0.0002   -0.0002    0.0000    0.0002
          12    0.1207    0.0002   -0.0268    0.0000    0.0002   -0.0001    0.0000   -0.0022
          13   -0.1568    0.0002   -0.0010    0.0000    0.0000   -0.0001   -0.0001    0.0146
          14    0.0944    0.0000    0.0044    0.0000    0.0000    0.0002    0.0002   -0.0551
          15   -0.0760   -0.0001    0.0030    0.0000   -0.0001    0.0001    0.0001   -0.0359
          16    0.0160   -0.3897   -0.0054   -0.0020   -0.0179   -0.0008   -0.0012   -0.0003
          17   -0.0056   -0.2231   -0.0048    0.0019   -0.0103   -0.0006   -0.0006   -0.0004
          18    0.0021    0.6532    0.0117    0.0011    0.0254    0.0016    0.0025    0.0011
          19    0.0057   -0.0131   -0.0025    0.1167    0.1035    0.1751    0.0660    0.0011
          20    0.0026    0.0106    0.0012   -0.0673   -0.0625   -0.1035   -0.0388   -0.0006
          21    0.0008   -0.0252   -0.0036    0.1806    0.1576    0.3069    0.1161    0.0021
          22    0.0014    0.0107   -0.0014   -0.1310   -0.1216    0.1515    0.0545    0.0021
          23   -0.0034   -0.0098    0.0000    0.0743    0.0719   -0.0877   -0.0312   -0.0013
          24   -0.0083   -0.0234    0.0010    0.2059    0.1894   -0.2701   -0.0982   -0.0037
          25    0.0088    0.0025    0.0003   -0.0008   -0.0018    0.0005   -0.0010   -0.0001
          26    0.0106   -0.0166    0.0021   -0.1295    0.1342   -0.0717    0.1983    0.0006
          27    0.0010   -0.0252    0.0025   -0.1749    0.1765   -0.1087    0.3012    0.0010
          28   -0.0067   -0.0030   -0.0002    0.0020    0.0005    0.0000    0.0010    0.0002
          29   -0.0024    0.0139   -0.0018    0.1377   -0.1464   -0.0705    0.1802    0.0007
          30   -0.0061   -0.0229    0.0021   -0.1876    0.1954    0.1068   -0.2773   -0.0010
          31   -0.0070    0.0061   -0.2746   -0.0005    0.0010   -0.0012   -0.0003   -0.0091
          32   -0.0942   -0.0097    0.6785    0.0018   -0.0011    0.0020    0.0005    0.0157
          33   -0.0922   -0.0059    0.3455    0.0008   -0.0005    0.0010    0.0002    0.0052
          34    0.0063    0.0000   -0.0041   -0.0005   -0.0002    0.0010    0.0007   -0.2509
          35    0.1115   -0.0021    0.0064    0.0009    0.0006   -0.0023   -0.0017    0.5877
          36    0.1082   -0.0004    0.0017    0.0004    0.0003   -0.0011   -0.0009    0.2836
          37   -0.0367    0.0019   -0.0362   -0.0004    0.0003   -0.0002   -0.0005    0.1075
          38   -0.0855    0.0015   -0.0284   -0.0003    0.0002   -0.0001   -0.0003    0.0512
          39   -0.1162    0.0016   -0.0644   -0.0008    0.0005   -0.0003   -0.0008    0.1605


   Root No.      33

                33 A   

                3147.3
  
           1    0.0002
           2   -0.0001
           3    0.0003
           4    0.0000
           5    0.0000
           6   -0.0001
           7    0.0000
           8    0.0000
           9    0.0001
          10    0.0069
          11   -0.0073
          12    0.0003
          13   -0.0378
          14   -0.0003
          15   -0.0398
          16    0.0010
          17    0.0003
          18   -0.0010
          19    0.0000
          20    0.0000
          21    0.0000
          22   -0.0006
          23    0.0003
          24    0.0008
          25    0.0001
          26   -0.0002
          27   -0.0002
          28    0.0000
          29    0.0007
          30   -0.0011
          31   -0.0217
          32    0.0496
          33    0.0237
          34    0.0625
          35   -0.1724
          36   -0.0949
          37    0.3238
          38    0.2148
          39    0.5393


           MASS-WEIGHTED COORDINATE ANALYSIS (NORMAL COORDINATES)


   Root No.       1         2         3         4         5         6         7         8

                 1 A       2 A       3 A       4 A       5 A       6 A       7 A       8 A   

                  83.9     242.2     357.9     489.3     653.5     813.4     864.6     868.9
  
           1    0.0262   -0.0605   -0.1851    0.2008    0.0096   -0.0450   -0.1208   -0.0339
           2   -0.1663    0.2685   -0.0235   -0.2571    0.0333   -0.0276   -0.0789    0.0139
           3    0.1388    0.0861    0.4180    0.1661   -0.1200    0.0702    0.2458    0.0376
           4    0.0269   -0.0502   -0.1976    0.3036    0.0641    0.0580    0.1077   -0.1372
           5    0.1391   -0.0931   -0.1093    0.0565    0.0940    0.1018    0.1652    0.0367
           6   -0.2667   -0.2755   -0.2287    0.1334    0.0131    0.0138    0.1757   -0.0540
           7   -0.2411    0.2620   -0.1262   -0.0396    0.1452    0.1219    0.1629    0.1034
           8   -0.0133    0.0823   -0.0594   -0.1608    0.0758    0.0092   -0.0583    0.1300
           9    0.0410    0.3658   -0.1792   -0.0892    0.0216    0.0117    0.1383    0.1162
          10   -0.1725   -0.0792    0.2549   -0.2234   -0.3156   -0.0732   -0.0988   -0.0111
          11   -0.2403    0.1214    0.1624    0.3635   -0.3360   -0.1075   -0.1149   -0.0352
          12    0.2852    0.1534    0.0926    0.1629    0.1546   -0.1462   -0.1872   -0.0413
          13    0.3459   -0.1076    0.2086   -0.2526   -0.0139   -0.0851   -0.1332   -0.0112
          14    0.2521   -0.2867    0.0124    0.0344    0.0170   -0.0329   -0.0695   -0.0597
          15   -0.1641   -0.3020    0.0263   -0.2740   -0.0565   -0.1101   -0.2111   -0.0567
          16    0.0931    0.0081   -0.0370    0.1463    0.0538   -0.0524   -0.0767    0.1875
          17   -0.1044    0.0620    0.0228   -0.1640    0.0941   -0.0092    0.0698   -0.3552
          18    0.0708    0.0349    0.1319    0.0681    0.0258   -0.0075    0.0717    0.0048
          19    0.0972    0.0428    0.0810    0.0874   -0.0261    0.0902    0.3794   -0.3536
          20    0.0519   -0.1623    0.0312    0.1236   -0.0282    0.4879    0.0308   -0.2716
          21   -0.1275   -0.1647   -0.1304    0.0805    0.0123    0.1358   -0.1811    0.0824
          22   -0.0437   -0.1199   -0.2135    0.1525    0.0776   -0.0208   -0.2151    0.2288
          23    0.0939    0.0250   -0.1220    0.0141    0.0949   -0.3757    0.2187    0.2062
          24   -0.1272   -0.1638   -0.1322    0.0818    0.0160    0.1350   -0.1750    0.0862
          25   -0.0361    0.1791    0.1146   -0.0232   -0.0332    0.4627    0.0264    0.4508
          26   -0.0242   -0.0857    0.0455    0.0471   -0.0201   -0.1768    0.2083    0.2723
          27    0.0262    0.1854   -0.0974   -0.0949    0.0385    0.1439   -0.1279   -0.1437
          28   -0.1802    0.0736   -0.1751   -0.1045    0.1723   -0.3270    0.1916   -0.2448
          29    0.0165    0.1341   -0.0825   -0.1388    0.0709    0.1860   -0.2303   -0.1990
          30    0.0256    0.1853   -0.0996   -0.0944    0.0433    0.1433   -0.1209   -0.1468
          31   -0.2181    0.0133    0.2798   -0.0509    0.0002   -0.0318    0.0513    0.0279
          32   -0.2110   -0.0023    0.2010    0.1375   -0.0053   -0.0329    0.0364   -0.0216
          33    0.2264    0.1397   -0.1132   -0.0158   -0.0616   -0.0460   -0.1242    0.0356
          34    0.2697   -0.1209   -0.1444   -0.2894   -0.2171    0.0812    0.2191    0.0908
          35    0.2134   -0.0518   -0.1519   -0.0206   -0.2257   -0.0125    0.0288   -0.0248
          36   -0.1884   -0.2356    0.1482   -0.2155    0.2759    0.0757    0.0803    0.0881
          37    0.0688    0.0465    0.2516    0.1200    0.3543   -0.1215   -0.2918   -0.0767
          38    0.0631   -0.2378    0.1159   -0.1247    0.4192    0.1305    0.1776    0.0977
          39   -0.0244   -0.0773   -0.1523   -0.1523   -0.3947   -0.0256    0.0197   -0.0129


   Root No.       9        10        11        12        13        14        15        16

                 9 A      10 A      11 A      12 A      13 A      14 A      15 A      16 A   

                 925.3     953.6     977.4    1008.0    1034.0    1085.6    1118.8    1156.7
  
           1    0.0197   -0.0343   -0.1210   -0.2567   -0.2025   -0.1768   -0.0110    0.0211
           2    0.0451    0.1958   -0.1450   -0.1093    0.0398    0.3602    0.0771    0.2872
           3    0.0020    0.0051   -0.0526    0.1527    0.0253   -0.2470   -0.1244   -0.0783
           4    0.0436    0.3009   -0.0434   -0.0756   -0.0088    0.1874    0.0201    0.0345
           5   -0.0273   -0.1040    0.1367    0.1332    0.0527   -0.0413    0.0000   -0.2913
           6    0.0621   -0.0376    0.0665   -0.1604   -0.1007   -0.0972    0.3912    0.1139
           7   -0.0344   -0.1513    0.1024    0.0579   -0.0136   -0.0589   -0.0487   -0.4298
           8   -0.0294   -0.2534   -0.0709   -0.1793   -0.1973   -0.1986   -0.0286   -0.0264
           9    0.0599   -0.0219    0.0383   -0.1453   -0.0413    0.2467   -0.3575    0.0300
          10    0.1952   -0.0136    0.0138   -0.0041    0.1661   -0.1392   -0.0640    0.0305
          11    0.1799    0.0605   -0.1652    0.0336    0.2109   -0.1390    0.0259   -0.0856
          12   -0.1964    0.0517   -0.1009    0.0569   -0.0722    0.1218    0.1225   -0.1511
          13    0.0332   -0.0352    0.0683    0.1781   -0.2195    0.1218    0.0189   -0.0097
          14    0.0333   -0.0631    0.1645    0.1268   -0.2289    0.1437    0.0318    0.0361
          15   -0.0548   -0.0889    0.2447   -0.1722    0.2427    0.0264   -0.0240    0.0464
          16   -0.0930   -0.2071   -0.3087    0.0328   -0.1036   -0.1244   -0.0462    0.5139
          17   -0.0174    0.5070    0.2245   -0.0262   -0.1705   -0.2714   -0.3468    0.1174
          18   -0.0697    0.0390   -0.0900    0.1119   -0.0811   -0.2457   -0.1885    0.2946
          19    0.1237   -0.0478    0.0749   -0.1227    0.0192    0.1417    0.2194    0.2189
          20   -0.0043   -0.1760    0.0251    0.1969    0.2166    0.2442   -0.2430    0.1000
          21   -0.0536    0.0200   -0.0436    0.0788    0.0312    0.0096   -0.1162   -0.0290
          22   -0.1077    0.2965    0.0417    0.2979    0.1616    0.0399   -0.2089    0.0604
          23   -0.0191    0.2357    0.3104    0.2698    0.1550   -0.1510    0.2438    0.0924
          24   -0.0554    0.0260   -0.0477    0.0749    0.0250    0.0130   -0.1150    0.0023
          25    0.0045   -0.0066    0.3642    0.0733    0.0607   -0.0437    0.2268    0.3145
          26    0.0785   -0.1111    0.0305   -0.2026   -0.0881    0.1523   -0.2682    0.0107
          27   -0.0486    0.0231   -0.0268    0.0708    0.0097   -0.0863    0.0873   -0.0012
          28   -0.0886   -0.4097   -0.0879    0.3969    0.2616   -0.0097   -0.0947    0.1897
          29   -0.1004   -0.0393   -0.0738    0.0904   -0.0438   -0.2894    0.2362   -0.0096
          30   -0.0522    0.0175   -0.0295    0.0664   -0.0016   -0.1034    0.0753    0.0088
          31   -0.4395    0.1333   -0.1739    0.0617    0.0079    0.3109    0.2122   -0.0592
          32   -0.4021    0.0308   -0.0282    0.0001   -0.1010    0.0683    0.0389   -0.0368
          33    0.4411    0.1058   -0.2148    0.0880    0.2688    0.1032    0.1599   -0.0758
          34   -0.2881    0.1325   -0.2671   -0.1468    0.2813   -0.1127    0.0027   -0.0574
          35   -0.2682   -0.0110    0.0702   -0.1780    0.2046   -0.0421   -0.0194    0.0226
          36    0.2981    0.0963   -0.2504    0.2219   -0.1842    0.0466    0.0525   -0.0615
          37    0.0008   -0.1207    0.2875   -0.2461    0.2720    0.0248   -0.0187    0.0395
          38    0.0369    0.1308   -0.2832   -0.1676    0.2511   -0.1424   -0.0078   -0.0212
          39   -0.0207   -0.0111    0.0260    0.2134   -0.2536    0.0881    0.0177   -0.0036


   Root No.      17        18        19        20        21        22        23        24

                17 A      18 A      19 A      20 A      21 A      22 A      23 A      24 A   

                1158.3    1174.0    1200.3    1280.3    1328.9    1399.6    1412.5    1598.2
  
           1    0.3825   -0.0535    0.0465    0.0428    0.0809   -0.0155   -0.2454    0.5257
           2   -0.2574    0.0899   -0.2686    0.0666    0.0617    0.0193   -0.1512    0.3064
           3   -0.1833   -0.0041   -0.0838    0.3567   -0.1868   -0.0040   -0.2902    0.2015
           4   -0.2741   -0.2777   -0.1031    0.1461   -0.1225    0.2047   -0.1322   -0.4202
           5   -0.2914   -0.3270    0.1106   -0.2292    0.1130   -0.1003    0.1566    0.2314
           6   -0.0348    0.0512    0.0262   -0.0865    0.0275    0.0023    0.0392   -0.0186
           7   -0.1927    0.3844    0.1074   -0.1068    0.0368   -0.0124    0.0652   -0.0067
           8    0.2275    0.0759    0.0237    0.2336   -0.1654   -0.2368   -0.1846   -0.4756
           9    0.0981   -0.0306    0.0534   -0.0684    0.0297   -0.0009    0.0335   -0.0139
          10   -0.0487    0.0077   -0.0295    0.0630    0.1596    0.0006    0.0659    0.0077
          11    0.1455   -0.0316   -0.1014   -0.2334    0.0218   -0.0005    0.1491   -0.1354
          12    0.2370   -0.0472   -0.2236   -0.1389    0.2154    0.0014    0.1867   -0.0786
          13    0.0179    0.0060   -0.1323   -0.0433    0.1411    0.0053    0.1346   -0.1268
          14   -0.0595    0.0062    0.1902    0.0765   -0.1157   -0.0022   -0.1111    0.0885
          15   -0.0981    0.0212    0.0663    0.0285    0.0322    0.0027    0.0420   -0.0607
          16   -0.2664    0.1765    0.1814   -0.2561    0.0875    0.0081    0.1039   -0.0298
          17    0.1584   -0.1044    0.2315   -0.1675    0.0404   -0.0097    0.0628   -0.0186
          18   -0.1967    0.0689    0.1793   -0.1178   -0.0101    0.0012    0.0565   -0.0914
          19    0.1048    0.2024   -0.0486    0.0818   -0.1497   -0.3215    0.3023    0.0084
          20    0.2636    0.3403   -0.0064   -0.0881    0.1187    0.1761   -0.1472   -0.0259
          21    0.0012   -0.0009    0.0053   -0.0481    0.0969    0.2845   -0.2481   -0.1140
          22    0.0582    0.1453   -0.1026    0.2542   -0.2146   -0.3228    0.2158    0.0484
          23    0.1553    0.3713   -0.0450   -0.0243    0.0908    0.1802   -0.1865   -0.0113
          24   -0.0135   -0.0129   -0.0106    0.0845   -0.1128   -0.2840    0.2275    0.1234
          25    0.2202   -0.3620    0.0000   -0.0477    0.0259    0.0098    0.0260   -0.0189
          26    0.1606    0.0062    0.0362    0.1228   -0.1906    0.3787    0.3200    0.0218
          27   -0.0430    0.0010   -0.0061   -0.0499    0.0978   -0.2934   -0.2376   -0.1124
          28    0.1529   -0.3802   -0.0508    0.0875   -0.0309    0.0029   -0.0504    0.0121
          29   -0.0050    0.0560   -0.0216    0.2173   -0.2346    0.3784    0.2696    0.0442
          30   -0.0232    0.0152   -0.0037    0.0811   -0.1142    0.2922    0.2177    0.1221
          31    0.1072   -0.0224    0.5450    0.0897   -0.0639   -0.0035   -0.0507    0.0185
          32    0.0772   -0.0138   -0.1060   -0.0779    0.0267    0.0007    0.0460   -0.0320
          33    0.0998   -0.0254    0.5155    0.0275   -0.0649   -0.0045    0.0021   -0.0358
          34    0.0906   -0.0118   -0.1610   -0.3427   -0.3307   -0.0024   -0.0578    0.0049
          35   -0.0472    0.0047    0.0788    0.0532   -0.0018   -0.0007   -0.0215    0.0179
          36    0.1126   -0.0136   -0.1271   -0.3142   -0.3423   -0.0025   -0.0865    0.0383
          37   -0.0705    0.0217    0.0199   -0.2183   -0.3450   -0.0013   -0.1027    0.0264
          38    0.0492   -0.0159   -0.0105    0.2613    0.4424    0.0026    0.1444   -0.0489
          39   -0.0029    0.0003    0.0048    0.0213    0.0420    0.0012    0.0299   -0.0329


   Root No.      25        26        27        28        29        30        31        32

                25 A      26 A      27 A      28 A      29 A      30 A      31 A      32 A   

                1865.3    2998.6    3042.0    3084.3    3098.5    3134.3    3135.6    3140.6
  
           1   -0.1202    0.1364    0.0027    0.0003    0.0088    0.0015    0.0064    0.0022
           2   -0.0410    0.0779    0.0001    0.0000    0.0049    0.0041    0.0022   -0.0003
           3   -0.1146   -0.2240   -0.0034   -0.0008   -0.0191   -0.0009   -0.0014    0.0011
           4    0.0244   -0.0018    0.0004    0.0081    0.0108   -0.1766   -0.0712   -0.0013
           5   -0.0162    0.0032   -0.0009   -0.0043   -0.0056    0.1045    0.0400    0.0009
           6   -0.0041    0.0153   -0.0002   -0.2241   -0.2099   -0.0197   -0.0097    0.0007
           7    0.0049    0.0019    0.0011   -0.0004    0.0008   -0.0018    0.0000    0.0003
           8    0.0263   -0.0030    0.0005   -0.0046    0.0074    0.0724   -0.2090   -0.0006
           9    0.0089    0.0150   -0.0007    0.2099   -0.2248    0.0008   -0.0129    0.0000
          10    0.5809   -0.0028    0.1105    0.0015    0.0016    0.0010    0.0006   -0.0106
          11   -0.2450    0.0045   -0.2404   -0.0025    0.0018   -0.0014    0.0000    0.0010
          12    0.3748    0.0006   -0.1091   -0.0003    0.0013   -0.0005    0.0001   -0.0100
          13   -0.4870    0.0010   -0.0041    0.0002    0.0001   -0.0006   -0.0003    0.0662
          14    0.2933   -0.0001    0.0178   -0.0002   -0.0003    0.0015    0.0011   -0.2489
          15   -0.2362   -0.0002    0.0123    0.0001   -0.0005    0.0007    0.0008   -0.1621
          16    0.0144   -0.4715   -0.0064   -0.0042   -0.0376   -0.0014   -0.0022   -0.0004
          17   -0.0051   -0.2699   -0.0057    0.0038   -0.0217   -0.0011   -0.0010   -0.0005
          18    0.0019    0.7902    0.0137    0.0021    0.0533    0.0029    0.0046    0.0014
          19    0.0051   -0.0158   -0.0030    0.2382    0.2174    0.3272    0.1233    0.0014
          20    0.0024    0.0128    0.0014   -0.1373   -0.1313   -0.1934   -0.0724   -0.0008
          21    0.0007   -0.0305   -0.0043    0.3687    0.3309    0.5736    0.2167    0.0027
          22    0.0012    0.0130   -0.0017   -0.2675   -0.2554    0.2833    0.1018    0.0027
          23   -0.0030   -0.0118    0.0000    0.1517    0.1509   -0.1640   -0.0583   -0.0017
          24   -0.0075   -0.0283    0.0011    0.4202    0.3978   -0.5050   -0.1834   -0.0049
          25    0.0079    0.0031    0.0003   -0.0017   -0.0037    0.0009   -0.0018   -0.0001
          26    0.0095   -0.0200    0.0025   -0.2642    0.2818   -0.1340    0.3701    0.0008
          27    0.0009   -0.0304    0.0030   -0.3570    0.3707   -0.2032    0.5623    0.0013
          28   -0.0060   -0.0036   -0.0002    0.0040    0.0011    0.0000    0.0019    0.0002
          29   -0.0022    0.0168   -0.0021    0.2811   -0.3075   -0.1317    0.3364    0.0009
          30   -0.0055   -0.0277    0.0025   -0.3829    0.4103    0.1997   -0.5178   -0.0013
          31   -0.0063    0.0074   -0.3234   -0.0009    0.0021   -0.0022   -0.0005   -0.0120
          32   -0.0847   -0.0117    0.7990    0.0037   -0.0023    0.0037    0.0008    0.0205
          33   -0.0829   -0.0071    0.4069    0.0016   -0.0011    0.0018    0.0004    0.0068
          34    0.0057    0.0001   -0.0048   -0.0009   -0.0004    0.0018    0.0013   -0.3286
          35    0.1003   -0.0026    0.0075    0.0019    0.0013   -0.0042   -0.0033    0.7695
          36    0.0974   -0.0005    0.0020    0.0009    0.0006   -0.0021   -0.0016    0.3714
          37   -0.0330    0.0023   -0.0426   -0.0008    0.0006   -0.0004   -0.0009    0.1408
          38   -0.0769    0.0018   -0.0334   -0.0007    0.0004   -0.0002   -0.0005    0.0671
          39   -0.1046    0.0019   -0.0758   -0.0015    0.0011   -0.0005   -0.0014    0.2102


   Root No.      33

                33 A   

                3147.3
  
           1    0.0011
           2   -0.0005
           3    0.0015
           4    0.0000
           5   -0.0002
           6   -0.0005
           7    0.0001
           8   -0.0002
           9    0.0005
          10    0.0327
          11   -0.0350
          12    0.0016
          13   -0.1799
          14   -0.0014
          15   -0.1896
          16    0.0014
          17    0.0004
          18   -0.0013
          19    0.0000
          20    0.0001
          21   -0.0001
          22   -0.0008
          23    0.0004
          24    0.0012
          25    0.0001
          26   -0.0002
          27   -0.0003
          28    0.0000
          29    0.0009
          30   -0.0015
          31   -0.0300
          32    0.0684
          33    0.0327
          34    0.0863
          35   -0.2379
          36   -0.1309
          37    0.4469
          38    0.2965
          39    0.7443


          DESCRIPTION OF VIBRATIONS


 VIBRATION    1    1A       ATOM PAIR        ENERGY CONTRIBUTION    RADIAL
 FREQ.        83.94        C  4 --  C  5          +16.9% (512.7%)     0.0%
 T-DIPOLE    0.0146        C  1 --  C  2          +14.8% (479.2%)     0.0%
 TRAVEL      0.0536        C  2 --  C  3          +12.3% (437.6%)     0.0%
 RED. MASS   1.0908        C  1 --  C  4           +8.4% (361.2%)     0.0%
 EFF. MASS 279.2011

 VIBRATION    2    2A       ATOM PAIR        ENERGY CONTRIBUTION    RADIAL
 FREQ.       242.24        C  2 --  C  3          +15.9% (244.6%)     0.0%
 T-DIPOLE    0.0292        C  4 --  C  5          +14.3% (231.8%)     0.0%
 TRAVEL      0.0630        C  1 --  C  3          +11.1% (203.9%)     0.0%
 RED. MASS   1.1585        C  3 --  H 10           +8.8% (181.6%)    44.4%
 EFF. MASS  70.1302

 VIBRATION    3    3A       ATOM PAIR        ENERGY CONTRIBUTION    RADIAL
 FREQ.       357.87        C  1 --  C  2          +16.8% (167.7%)     0.0%
 T-DIPOLE    0.0708        C  1 --  C  4          +15.2% (159.9%)     0.0%
 TRAVEL      0.0871        C  1 --  C  3          +15.2% (159.7%)     0.0%
 RED. MASS   0.8731        C  1 --  H  6           +7.3% (111.0%)    98.0%
 EFF. MASS  24.8112

 VIBRATION    4    4A       ATOM PAIR        ENERGY CONTRIBUTION    RADIAL
 FREQ.       489.27        C  1 --  C  4          +17.8% (139.9%)     0.1%
 T-DIPOLE    0.0457        C  4 --  C  5          +13.3% (121.2%)     0.2%
 TRAVEL      0.0842        C  5 --  H 12          +12.9% (119.3%)     1.1%
 RED. MASS   1.1693        C  5 --  H 13           +9.7% (103.5%)    30.5%
 EFF. MASS  19.4271

 VIBRATION    5    5A       ATOM PAIR        ENERGY CONTRIBUTION    RADIAL
 FREQ.       653.46        C  5 --  H 13          +27.4% ( 77.9%)     0.3%
 T-DIPOLE    0.2052        C  1 --  C  4          +13.3% ( 54.3%)     0.6%
 TRAVEL      0.1469        C  5 --  H 12          +12.6% ( 52.8%)     0.0%
 RED. MASS   0.9279        C  4 --  C  5          +11.9% ( 51.4%)     0.1%
 EFF. MASS   4.7823        C  4 --  H 11          +11.7% ( 51.0%)     2.3%

 VIBRATION    6    6A       ATOM PAIR        ENERGY CONTRIBUTION    RADIAL
 FREQ.       813.36        C  3 --  H  9          +18.9% ( 59.1%)     0.0%
 T-DIPOLE    0.0180        C  2 --  H  7          +18.6% ( 58.7%)     0.0%
 TRAVEL      0.1810        C  3 --  H 10          +16.2% ( 54.8%)     0.0%
 RED. MASS   0.2238        C  2 --  H  8          +15.9% ( 54.2%)     0.0%
 EFF. MASS   2.5313

 VIBRATION    7    7A       ATOM PAIR        ENERGY CONTRIBUTION    RADIAL
 FREQ.       864.62        C  2 --  H  7          +12.2% ( 58.9%)     6.2%
 T-DIPOLE    0.1117        C  1 --  C  4          +11.1% ( 56.1%)    66.5%
 TRAVEL      0.1143        C  2 --  H  8          +10.8% ( 55.3%)     5.4%
 RED. MASS   0.3409        C  5 --  H 13           +9.2% ( 51.1%)    24.7%
 EFF. MASS   5.9708

 VIBRATION    8    8A       ATOM PAIR        ENERGY CONTRIBUTION    RADIAL
 FREQ.       868.86        C  3 --  H  9          +23.8% ( 63.7%)     8.3%
 T-DIPOLE    0.0865        C  3 --  H 10          +17.4% ( 54.5%)     0.2%
 TRAVEL      0.1913        C  2 --  H  7          +16.1% ( 52.4%)     5.5%
 RED. MASS   0.2117        C  2 --  H  8          +11.6% ( 44.5%)     0.2%
 EFF. MASS   2.1212        C  1 --  H  6          +11.5% ( 44.4%)     0.5%

 VIBRATION    9    9A       ATOM PAIR        ENERGY CONTRIBUTION    RADIAL
 FREQ.       925.35        C  4 --  H 11          +56.2% ( 78.1%)     0.0%
 T-DIPOLE    0.4666        C  5 --  H 12          +18.0% ( 44.2%)     0.0%
 TRAVEL      0.1917        C  1 --  C  4           +4.2% ( 21.5%)     1.5%
 RED. MASS   0.5094        C  4 --  C  5           +3.7% ( 19.9%)     0.0%
 EFF. MASS   1.9830

 VIBRATION   10   10A       ATOM PAIR        ENERGY CONTRIBUTION    RADIAL
 FREQ.       953.55        C  2 --  H  8          +13.2% ( 51.8%)    19.5%
 T-DIPOLE    0.1526        C  2 --  C  3          +12.7% ( 50.7%)     4.0%
 TRAVEL      0.1243        C  1 --  H  6          +12.4% ( 50.1%)     0.5%
 RED. MASS   0.3858        C  3 --  H 10          +11.9% ( 49.0%)     7.2%
 EFF. MASS   4.5798        C  1 --  C  2          +11.3% ( 47.9%)    55.1%
                           C  1 --  C  3          +11.3% ( 47.9%)    92.4%
                           C  2 --  H  7          +10.1% ( 45.2%)     8.5%

 VIBRATION   11   11A       ATOM PAIR        ENERGY CONTRIBUTION    RADIAL
 FREQ.       977.43        C  5 --  H 12          +18.0% ( 56.5%)     6.9%
 T-DIPOLE    0.0933        C  5 --  H 13          +17.1% ( 55.0%)    14.6%
 TRAVEL      0.1349        C  1 --  H  6          +12.0% ( 46.1%)     1.1%
 RED. MASS   0.2514        C  4 --  C  5          +10.9% ( 43.9%)     0.0%
 EFF. MASS   3.7890

 VIBRATION   12   12A       ATOM PAIR        ENERGY CONTRIBUTION    RADIAL
 FREQ.      1008.05        C  3 --  H 10          +12.6% ( 48.3%)     0.1%
 T-DIPOLE    0.2260        C  2 --  H  8          +11.6% ( 46.4%)     1.0%
 TRAVEL      0.1253        C  1 --  C  3          +10.7% ( 44.5%)     5.0%
 RED. MASS   0.3555        C  1 --  C  2          +10.5% ( 44.0%)    17.3%
 EFF. MASS   4.2580

 VIBRATION   13   13A       ATOM PAIR        ENERGY CONTRIBUTION    RADIAL
 FREQ.      1034.00        C  5 --  H 13          +17.7% ( 50.3%)     0.0%
 T-DIPOLE    0.3535        C  5 --  H 12          +15.5% ( 47.0%)     0.0%
 TRAVEL      0.1252        C  4 --  H 11           +8.9% ( 35.6%)     1.6%
 RED. MASS   0.5059        C  3 --  H 10           +8.1% ( 34.1%)     3.1%
 EFF. MASS   4.1622

 VIBRATION   14   14A       ATOM PAIR        ENERGY CONTRIBUTION    RADIAL
 FREQ.      1085.63        C  1 --  C  3          +16.9% ( 58.9%)    31.4%
 T-DIPOLE    0.0173        C  1 --  H  6          +14.3% ( 54.2%)     5.6%
 TRAVEL      0.0996        C  1 --  C  2          +12.2% ( 50.1%)    41.9%
 RED. MASS   0.8507        C  1 --  C  4           +9.5% ( 44.1%)     7.6%
 EFF. MASS   6.2650

 VIBRATION   15   15A       ATOM PAIR        ENERGY CONTRIBUTION    RADIAL
 FREQ.      1118.78        C  2 --  C  3          +16.8% ( 55.8%)     0.0%
 T-DIPOLE    0.0609        C  2 --  H  8          +14.0% ( 51.0%)    14.4%
 TRAVEL      0.1119        C  2 --  H  7          +13.8% ( 50.6%)    16.7%
 RED. MASS   0.5801        C  3 --  H  9          +12.5% ( 48.1%)    15.2%
 EFF. MASS   4.8168        C  3 --  H 10          +10.0% ( 43.1%)    15.7%

 VIBRATION   16   16A       ATOM PAIR        ENERGY CONTRIBUTION    RADIAL
 FREQ.      1156.68        C  1 --  H  6          +23.2% ( 63.2%)     3.5%
 T-DIPOLE    0.0925        C  3 --  H  9          +12.7% ( 46.8%)     0.0%
 TRAVEL      0.1054        C  2 --  C  3          +12.0% ( 45.6%)    72.5%
 RED. MASS   0.7909        C  1 --  C  3          +11.8% ( 45.2%)    79.2%
 EFF. MASS   5.2519

 VIBRATION   17   17A       ATOM PAIR        ENERGY CONTRIBUTION    RADIAL
 FREQ.      1158.27        C  1 --  C  2          +15.6% ( 58.2%)    94.9%
 T-DIPOLE    0.1044        C  1 --  H  6          +13.6% ( 54.4%)     5.8%
 TRAVEL      0.0875        C  1 --  C  4          +12.8% ( 52.8%)    12.2%
 RED. MASS   1.2685        C  1 --  C  3          +12.7% ( 52.6%)     2.6%
 EFF. MASS   7.6060

 VIBRATION   18   18A       ATOM PAIR        ENERGY CONTRIBUTION    RADIAL
 FREQ.      1174.04        C  2 --  H  7          +19.3% ( 51.9%)     0.0%
 T-DIPOLE    0.0596        C  2 --  H  8          +19.2% ( 51.8%)     0.5%
 TRAVEL      0.1235        C  3 --  H 10          +16.8% ( 48.4%)     0.4%
 RED. MASS   0.7986        C  3 --  H  9          +16.0% ( 47.2%)     0.0%
 EFF. MASS   3.7628        C  2 --  C  3          +12.2% ( 41.2%)     0.1%

 VIBRATION   19   19A       ATOM PAIR        ENERGY CONTRIBUTION    RADIAL
 FREQ.      1200.33        C  4 --  H 11          +43.3% ( 77.0%)     1.5%
 T-DIPOLE    0.0573        C  1 --  H  6          +12.9% ( 42.1%)     0.1%
 TRAVEL      0.1301        C  4 --  C  5           +8.5% ( 34.2%)     7.6%
 RED. MASS   0.5230        C  1 --  C  2           +5.9% ( 28.3%)    12.5%
 EFF. MASS   3.3167

 VIBRATION   20   20A       ATOM PAIR        ENERGY CONTRIBUTION    RADIAL
 FREQ.      1280.34        C  1 --  C  4          +13.5% ( 47.6%)    70.2%
 T-DIPOLE    0.0508        C  1 --  H  6          +12.0% ( 44.8%)     9.5%
 TRAVEL      0.0976        C  2 --  C  3          +11.6% ( 44.1%)    99.8%
 RED. MASS   0.5106        C  1 --  C  2          +10.7% ( 42.5%)     3.6%
 EFF. MASS   5.5298

 VIBRATION   21   21A       ATOM PAIR        ENERGY CONTRIBUTION    RADIAL
 FREQ.      1328.95        C  5 --  H 13          +23.1% ( 53.1%)     0.6%
 T-DIPOLE    0.0543        C  5 --  H 12          +16.5% ( 44.8%)     3.4%
 TRAVEL      0.1238        C  1 --  C  4          +10.6% ( 36.0%)    74.8%
 RED. MASS   0.2884        C  4 --  H 11           +7.2% ( 29.6%)     1.2%
 EFF. MASS   3.3125

 VIBRATION   22   22A       ATOM PAIR        ENERGY CONTRIBUTION    RADIAL
 FREQ.      1399.59        C  3 --  H  9          +21.7% ( 46.5%)     2.9%
 T-DIPOLE    0.0827        C  3 --  H 10          +21.6% ( 46.5%)     2.8%
 TRAVEL      0.1572        C  2 --  H  8          +20.5% ( 45.2%)     2.7%
 RED. MASS   0.2706        C  2 --  H  7          +20.2% ( 45.0%)     2.9%
 EFF. MASS   1.9485

 VIBRATION   23   23A       ATOM PAIR        ENERGY CONTRIBUTION    RADIAL
 FREQ.      1412.47        C  1 --  C  4          +15.8% ( 49.1%)    96.6%
 T-DIPOLE    0.0906        C  2 --  H  7          +10.7% ( 40.5%)     1.4%
 TRAVEL      0.1014        C  1 --  H  6          +10.2% ( 39.5%)     1.3%
 RED. MASS   0.5263        C  3 --  H  9           +9.8% ( 38.6%)     1.5%
 EFF. MASS   4.6440

 VIBRATION   24   24A       ATOM PAIR        ENERGY CONTRIBUTION    RADIAL
 FREQ.      1598.22        C  1 --  C  2          +19.8% ( 73.9%)    94.3%
 T-DIPOLE    0.1145        C  1 --  C  3          +19.6% ( 73.5%)    94.6%
 TRAVEL      0.0604        C  2 --  C  3          +14.4% ( 63.0%)   100.0%
 RED. MASS   3.2982        C  1 --  C  4          +11.4% ( 56.1%)    69.8%
 EFF. MASS  11.5741        C  1 --  H  6          +10.1% ( 52.8%)     2.5%

 VIBRATION   25   25A       ATOM PAIR        ENERGY CONTRIBUTION    RADIAL
 FREQ.      1865.31        C  4 --  C  5          +44.1% ( 98.3%)    98.5%
 T-DIPOLE    0.2182        C  1 --  C  4          +17.6% ( 62.1%)    60.5%
 TRAVEL      0.0553        C  4 --  H 11          +15.4% ( 58.1%)     3.4%
 RED. MASS   5.2121        C  5 --  H 12          +10.5% ( 47.9%)    10.6%
 EFF. MASS  11.8299        C  5 --  H 13          +10.3% ( 47.4%)    13.0%

 VIBRATION   26   26A       ATOM PAIR        ENERGY CONTRIBUTION    RADIAL
 FREQ.      2998.57        C  1 --  H  6          +96.1% ( 99.7%)   100.0%
 T-DIPOLE    0.2205        C  1 --  C  2           +1.1% ( 10.7%)    23.3%
 TRAVEL      0.1245        C  1 --  C  3           +1.1% ( 10.7%)    23.2%
 RED. MASS   0.9195        C  1 --  C  4           +1.1% ( 10.7%)    11.7%
 EFF. MASS   1.4514

 VIBRATION   27   27A       ATOM PAIR        ENERGY CONTRIBUTION    RADIAL
 FREQ.      3042.00        C  4 --  H 11          +96.3% ( 99.5%)   100.0%
 T-DIPOLE    0.2515        C  4 --  C  5           +1.4% ( 12.1%)    31.4%
 TRAVEL      0.1214        C  1 --  C  4           +1.4% ( 11.8%)    13.8%
 RED. MASS   0.9125        C  5 --  H 13           +0.9% (  9.7%)    95.5%
 EFF. MASS   1.5037

 VIBRATION   28   28A       ATOM PAIR        ENERGY CONTRIBUTION    RADIAL
 FREQ.      3084.28        C  2 --  H  8          +29.0% ( 55.8%)    97.6%
 T-DIPOLE    0.0253        C  3 --  H 10          +24.2% ( 51.0%)    97.3%
 TRAVEL      0.1185        C  2 --  H  7          +23.0% ( 49.8%)    96.3%
 RED. MASS   0.2634        C  3 --  H  9          +21.4% ( 48.0%)    96.6%
 EFF. MASS   1.5571

 VIBRATION   29   29A       ATOM PAIR        ENERGY CONTRIBUTION    RADIAL
 FREQ.      3098.50        C  3 --  H 10          +28.3% ( 54.8%)    97.7%
 T-DIPOLE    0.2520        C  2 --  H  8          +26.3% ( 52.9%)    98.0%
 TRAVEL      0.1187        C  3 --  H  9          +23.7% ( 50.1%)    96.7%
 RED. MASS   0.2629        C  2 --  H  7          +19.1% ( 45.0%)    96.2%
 EFF. MASS   1.5438

 VIBRATION   30   30A       ATOM PAIR        ENERGY CONTRIBUTION    RADIAL
 FREQ.      3134.30        C  2 --  H  7          +49.3% ( 69.7%)    97.4%
 T-DIPOLE    0.2191        C  2 --  H  8          +37.2% ( 60.6%)    95.2%
 TRAVEL      0.1295        C  3 --  H  9           +6.1% ( 24.5%)    96.9%
 RED. MASS   0.3871        C  3 --  H 10           +5.9% ( 24.1%)    96.6%
 EFF. MASS   1.2826

 VIBRATION   31   31A       ATOM PAIR        ENERGY CONTRIBUTION    RADIAL
 FREQ.      3135.62        C  3 --  H  9          +46.9% ( 68.2%)    97.0%
 T-DIPOLE    0.1641        C  3 --  H 10          +39.2% ( 62.3%)    95.6%
 TRAVEL      0.1275        C  2 --  H  7           +7.0% ( 26.4%)    97.3%
 RED. MASS   0.3840        C  2 --  H  8           +4.9% ( 22.0%)    94.3%
 EFF. MASS   1.3232

 VIBRATION   32   32A       ATOM PAIR        ENERGY CONTRIBUTION    RADIAL
 FREQ.      3140.64        C  5 --  H 12          +89.1% ( 96.2%)    99.8%
 T-DIPOLE    0.2017        C  5 --  H 13           +9.5% ( 31.5%)    78.3%
 TRAVEL      0.1178        C  4 --  C  5           +1.3% ( 11.6%)    17.6%
 RED. MASS   0.8155
 EFF. MASS   1.5484

 VIBRATION   33   33A       ATOM PAIR        ENERGY CONTRIBUTION    RADIAL
 FREQ.      3147.28        C  5 --  H 13          +89.2% ( 95.0%)    99.5%
 T-DIPOLE    0.2487        C  5 --  H 12           +8.4% ( 29.2%)    56.2%
 TRAVEL      0.1213        C  4 --  C  5           +1.6% ( 12.8%)    78.4%
 RED. MASS   0.7766        C  4 --  H 11           +0.8% (  8.8%)    94.4%
 EFF. MASS   1.4557

 SYMMETRY NUMBER FOR POINT-GROUP C1  =  1


          SYSTEM IS A GROUND STATE


    NULL



          MOLECULE IS NOT LINEAR

          THERE ARE 33 GENUINE VIBRATIONS IN THIS SYSTEM
          THIS THERMODYNAMICS CALCULATION IS LIMITED TO
          MOLECULES WHICH HAVE NO INTERNAL ROTATIONS




                    CALCULATED THERMODYNAMIC PROPERTIES
                                          *
   TEMP. (K)   PARTITION FUNCTION   H.O.F.    ENTHALPY  HEAT CAPACITY ENTROPY
                                   KCAL/MOL   CAL/MOLE    CAL/K/MOL  CAL/K/MOL


 298.00  VIB.     0.6924D+01                  1594.8864    13.2382     9.1972
         ROT.     0.7304D+05                   888.2813     2.9808    25.2351
         INT.     0.5057D+06                  2483.1677    16.2190    34.4322
         TRA.     0.5435D+27                  1480.4688     4.9680    38.5714
         TOT.                       34.322    3963.6365    21.1870    73.0036

 200.00  VIB.     0.3050D+01                   615.8174     7.0383     5.2953
         ROT.     0.4016D+05                   596.1620     2.9808    24.0464
         INT.     0.1225D+06                  1211.9793    10.0191    29.3417
         TRA.     0.2988D+27                   993.6033     4.9680    36.5902
         TOT.                       32.563    2205.5826    14.9871    65.9319

 210.00  VIB.     0.3298D+01                   688.8666     7.5761     5.6516
         ROT.     0.4321D+05                   625.9700     2.9808    24.1918
         INT.     0.1425D+06                  1314.8366    10.5569    29.8435
         TRA.     0.3215D+27                  1043.2834     4.9680    36.8326
         TOT.                       32.716    2358.1200    15.5250    66.6761

 220.00  VIB.     0.3570D+01                   767.4303     8.1410     6.0170
         ROT.     0.4633D+05                   655.7781     2.9808    24.3305
         INT.     0.1654D+06                  1423.2085    11.1218    30.3475
         TRA.     0.3448D+27                  1092.9636     4.9680    37.0637
         TOT.                       32.874    2516.1720    16.0898    67.4112

 230.00  VIB.     0.3869D+01                   851.7720     8.7314     6.3918
         ROT.     0.4953D+05                   685.5862     2.9808    24.4630
         INT.     0.1916D+06                  1537.3582    11.7122    30.8548
         TRA.     0.3685D+27                  1142.6437     4.9680    37.2846
         TOT.                       33.038    2680.0020    16.6802    68.1394

 240.00  VIB.     0.4198D+01                   942.1369     9.3453     6.7763
         ROT.     0.5279D+05                   715.3943     2.9808    24.5899
         INT.     0.2216D+06                  1657.5313    12.3261    31.3662
         TRA.     0.3928D+27                  1192.3239     4.9680    37.4960
         TOT.                       33.208    2849.8552    17.2941    68.8622

 250.00  VIB.     0.4561D+01                  1038.7484     9.9803     7.1706
         ROT.     0.5612D+05                   745.2024     2.9808    24.7116
         INT.     0.2560D+06                  1783.9509    12.9611    31.8822
         TRA.     0.4176D+27                  1242.0041     4.9680    37.6988
         TOT.                       33.384    3025.9549    17.9291    69.5810

 260.00  VIB.     0.4962D+01                  1141.8048    10.6338     7.5747
         ROT.     0.5953D+05                   775.0105     2.9808    24.8285
         INT.     0.2954D+06                  1916.8153    13.6146    32.4032
         TRA.     0.4430D+27                  1291.6842     4.9680    37.8937
         TOT.                       33.566    3208.4995    18.5827    70.2968

 270.00  VIB.     0.5406D+01                  1251.4777    11.3032     7.9886
         ROT.     0.6299D+05                   804.8186     2.9808    24.9410
         INT.     0.3405D+06                  2056.2963    14.2840    32.9295
         TRA.     0.4687D+27                  1341.3644     4.9680    38.0812
         TOT.                       33.756    3397.6607    19.2520    71.0107

 280.00  VIB.     0.5898D+01                  1367.9115    11.9856     8.4119
         ROT.     0.6652D+05                   834.6267     2.9808    25.0494
         INT.     0.3924D+06                  2202.5382    14.9664    33.4613
         TRA.     0.4950D+27                  1391.0445     4.9680    38.2618
         TOT.                       33.951    3593.5828    19.9344    71.7231

 290.00  VIB.     0.6444D+01                  1491.2232    12.6783     8.8446
         ROT.     0.7012D+05                   864.4348     2.9808    25.1540
         INT.     0.4518D+06                  2355.6581    15.6591    33.9985
         TRA.     0.5218D+27                  1440.7247     4.9680    38.4362
         TOT.                       34.154    3796.3828    20.6271    72.4347

 300.00  VIB.     0.7050D+01                  1621.5033    13.3788     9.2862
         ROT.     0.7378D+05                   894.2429     2.9808    25.2550
         INT.     0.5202D+06                  2515.7462    16.3596    34.5412
         TRA.     0.5490D+27                  1490.4049     4.9680    38.6046
         TOT.                       34.364    4006.1511    21.3276    73.1458

 310.00  VIB.     0.7725D+01                  1758.8167    14.0846     9.7364
         ROT.     0.7750D+05                   924.0510     2.9808    25.3528
         INT.     0.5987D+06                  2682.8677    17.0654    35.0891
         TRA.     0.5767D+27                  1540.0850     4.9680    38.7675
         TOT.                       34.581    4222.9528    22.0334    73.8566

 320.00  VIB.     0.8476D+01                  1903.2045    14.7933    10.1947
         ROT.     0.8128D+05                   953.8591     2.9808    25.4474
         INT.     0.6889D+06                  2857.0636    17.7741    35.6421
         TRA.     0.6048D+27                  1589.7652     4.9680    38.9252
         TOT.                       34.805    4446.8288    22.7421    74.5673

 330.00  VIB.     0.9314D+01                  2054.6855    15.5029    10.6608
         ROT.     0.8512D+05                   983.6672     2.9808    25.5391
         INT.     0.7928D+06                  3038.3528    18.4837    36.1999
         TRA.     0.6334D+27                  1639.4454     4.9680    39.0781
         TOT.                       35.036    4677.7981    23.4517    75.2780

 340.00  VIB.     0.1025D+02                  2213.2585    16.2114    11.1341
         ROT.     0.8901D+05                  1013.4753     2.9808    25.6281
         INT.     0.9123D+06                  3226.7338    19.1922    36.7622
         TRA.     0.6624D+27                  1689.1255     4.9680    39.2264
         TOT.                       35.274    4915.8593    24.1602    75.9886

 350.00  VIB.     0.1129D+02                  2378.9037    16.9171    11.6142
         ROT.     0.9297D+05                  1043.2834     2.9808    25.7145
         INT.     0.1050D+07                  3422.1871    19.8979    37.3287
         TRA.     0.6918D+27                  1738.8057     4.9680    39.3704
         TOT.                       35.519    5160.9928    24.8659    76.6992

 360.00  VIB.     0.1246D+02                  2551.5853    17.6184    12.1006
         ROT.     0.9698D+05                  1073.0915     2.9808    25.7985
         INT.     0.1208D+07                  3624.6768    20.5992    37.8991
         TRA.     0.7217D+27                  1788.4859     4.9680    39.5104
         TOT.                       35.771    5413.1626    25.5672    77.4095

 370.00  VIB.     0.1377D+02                  2731.2528    18.3140    12.5929
         ROT.     0.1011D+06                  1102.8996     2.9808    25.8802
         INT.     0.1391D+07                  3834.1524    21.2949    38.4730
         TRA.     0.7520D+27                  1838.1660     4.9680    39.6465
         TOT.                       36.030    5672.3184    26.2629    78.1195

 380.00  VIB.     0.1523D+02                  2917.8433    19.0028    13.0904
         ROT.     0.1052D+06                  1132.7077     2.9808    25.9596
         INT.     0.1602D+07                  4050.5510    21.9836    39.0501
         TRA.     0.7827D+27                  1887.8462     4.9680    39.7790
         TOT.                       36.296    5938.3972    26.9517    78.8291

 390.00  VIB.     0.1687D+02                  3111.2833    19.6838    13.5929
         ROT.     0.1094D+06                  1162.5158     2.9808    26.0371
         INT.     0.1845D+07                  4273.7991    22.6646    39.6299
         TRA.     0.8138D+27                  1937.5263     4.9680    39.9080
         TOT.                       36.569    6211.3254    27.6326    79.5380

 400.00  VIB.     0.1871D+02                  3311.4900    20.3560    14.0997
         ROT.     0.1136D+06                  1192.3239     2.9808    26.1125
         INT.     0.2126D+07                  4503.8139    23.3369    40.2123
         TRA.     0.8452D+27                  1987.2065     4.9680    40.0338
         TOT.                       36.849    6491.0204    28.3049    80.2461

   *: NOTE: HEATS OF FORMATION ARE RELATIVE TO THE
            ELEMENTS IN THEIR STANDARD STATE AT 298K
              (=  Standard Enthalpy of Formation).

            Hvib:  Zero-point energy is not included.
                   frequencies of less than zero cm-1 are not included.
            Hrot = (3/2)RT
            Htra = (3/2)RT + pV = (5/2)RT

            Heat capacity is Cp, not Cv

           For more information, see: HTTP://OpenMOPAC.net/Manual/thermochemistry.html


           FORCE CONSTANT IN CARTESIAN COORDINATES (Millidynes/A)

    ATOM   CHEMICAL       X               Y               Z
   NUMBER   SYMBOL  FORCE CONSTANT  FORCE CONSTANT  FORCE CONSTANT

      1       C       10.292380        6.598340        9.266566
      2       C        9.916523        6.489516        8.763935
      3       C        4.550399       11.797664        8.757475
      4       C       10.826741        8.660893        8.006381
      5       C       10.469280        8.429683        7.644759
      6       H        1.726772        0.904294        3.605344
      7       H        1.842427        0.984049        3.836150
      8       H        1.839874        0.969839        3.831448
      9       H        0.527554        2.293106        3.839779
     10       H        0.520737        2.286662        3.832973
     11       H        1.100611        3.681658        1.398338
     12       H        1.159170        3.936676        1.364602
     13       H        1.718357        1.066360        3.696464



 TOTAL CPU TIME:             0.52 SECONDS

 == MOPAC DONE ==
