 *******************************************************************************
 ** Site#: 14399           For non-commercial use only        Version 13.159M **
 *******************************************************************************
 ** Cite this work as: MOPAC2012, James J. P. Stewart, Stewart Computational  **
 ** Chemistry, Version 13.159M web: HTTP://OpenMOPAC.net  Days remaining:   6 **
 *******************************************************************************
 **                                                                           **
 **                                MOPAC2012                                  **
 **                                                                           **
 *******************************************************************************

                            PM3 CALCULATION RESULTS


 *******************************************************************************
 *  CALCULATION DONE:                                Mon Jun  2 11:10:05 2014  *
 *  PM3      - The PM3 Hamiltonian to be used
 *  PRECISE  - CRITERIA TO BE INCREASED BY 100 TIMES
 *  NOSYM    - POINT-GROUP SYMMETRY SET TO C1
 *  T=       - A TIME OF 172800.0 SECONDS REQUESTED
 *  DUMP=N   - RESTART FILE WRITTEN EVERY  7200.000 SECONDS
 *******************************************************************************
pm3  precise nosym
 InChI=1S/C11H16/c1-3-8-9(4-2)11-7-5-6-10(8)11/h3,5-6,8-11H,1,4,7H2,2H3

   ATOM   CHEMICAL          X               Y               Z
  NUMBER   SYMBOL      (ANGSTROMS)     (ANGSTROMS)     (ANGSTROMS)
 
     1       C         -0.56930000  *  -0.52080000  *   0.30510000  *
     2       C          0.77520000  *  -1.29470000  *   0.05800000  *
     3       C          1.25440000  *  -0.10890000  *  -0.77550000  *
     4       C         -0.11250000  *   0.50570000  *  -0.73930000  *
     5       C         -1.82740000  *  -1.32300000  *  -0.04750000  *
     6       C          1.71950000  *  -1.41550000  *   1.25930000  *
     7       C         -3.09750000  *  -0.48850000  *   0.07290000  *
     8       C          2.33520000  *   0.49750000  *   0.06320000  *
     9       C          2.58770000  *  -0.21160000  *   1.15260000  *
    10       C         -0.22870000  *   1.94920000  *  -0.31930000  *
    11       C          0.22260000  *   2.94010000  *  -1.09140000  *
    12       H          0.67170000  *  -2.23300000  *  -0.53800000  *
    13       H         -0.62840000  *  -0.10850000  *   1.34200000  *
    14       H          1.61230000  *  -0.38990000  *  -1.79360000  *
    15       H         -0.62330000  *   0.35850000  *  -1.72200000  *
    16       H         -1.90340000  *  -2.18690000  *   0.65230000  *
    17       H         -1.76340000  *  -1.74180000  *  -1.07900000  *
    18       H          1.17580000  *  -1.43740000  *   2.23110000  *
    19       H          2.35350000  *  -2.32720000  *   1.17480000  *
    20       H         -3.98610000  *  -1.11730000  *  -0.16110000  *
    21       H         -3.21570000  *  -0.09280000  *   1.10740000  *
    22       H         -3.08200000  *   0.36600000  *  -0.64130000  *
    23       H          3.35360000  *   0.05460000  *   1.87810000  *
    24       H          2.86640000  *   1.41140000  *  -0.19460000  *
    25       H         -0.70990000  *   2.20290000  *   0.62440000  *
    26       H          0.70190000  *   2.73760000  *  -2.04800000  *
    27       H          0.11780000  *   3.97460000  *  -0.77070000  *
 


          CARTESIAN COORDINATES 

    NO.       ATOM         X         Y         Z

     1         C       -0.5693   -0.5208    0.3051
     2         C        0.7752   -1.2947    0.0580
     3         C        1.2544   -0.1089   -0.7755
     4         C       -0.1125    0.5057   -0.7393
     5         C       -1.8274   -1.3230   -0.0475
     6         C        1.7195   -1.4155    1.2593
     7         C       -3.0975   -0.4885    0.0729
     8         C        2.3352    0.4975    0.0632
     9         C        2.5877   -0.2116    1.1526
    10         C       -0.2287    1.9492   -0.3193
    11         C        0.2226    2.9401   -1.0914
    12         H        0.6717   -2.2330   -0.5380
    13         H       -0.6284   -0.1085    1.3420
    14         H        1.6123   -0.3899   -1.7936
    15         H       -0.6233    0.3585   -1.7220
    16         H       -1.9034   -2.1869    0.6523
    17         H       -1.7634   -1.7418   -1.0790
    18         H        1.1758   -1.4374    2.2311
    19         H        2.3535   -2.3272    1.1748
    20         H       -3.9861   -1.1173   -0.1611
    21         H       -3.2157   -0.0928    1.1074
    22         H       -3.0820    0.3660   -0.6413
    23         H        3.3536    0.0546    1.8781
    24         H        2.8664    1.4114   -0.1946
    25         H       -0.7099    2.2029    0.6244
    26         H        0.7019    2.7376   -2.0480
    27         H        0.1178    3.9746   -0.7707

  H: (PM3): J. J. P. STEWART, J. COMP. CHEM. 10, 209 (1989).
  C: (PM3): J. J. P. STEWART, J. COMP. CHEM. 10, 209 (1989).

           Empirical Formula: C11 H16  =    27 atoms



      MOLECULAR POINT GROUP   :   C1  


      RHF CALCULATION, NO. OF DOUBLY OCCUPIED LEVELS =   30

      Geometry optimization using EF

          DIAGONAL MATRIX USED AS START HESSIAN

 CYCLE:     1 TIME:   0.013 TIME LEFT:  2.00D  GRAD.:   109.550 HEAT: 30.54106
 CYCLE:     2 TIME:   0.019 TIME LEFT:  2.00D  GRAD.:   140.628 HEAT: 30.39789
 CYCLE:     3 TIME:   0.019 TIME LEFT:  2.00D  GRAD.:    63.699 HEAT: 27.45306
 CYCLE:     4 TIME:   0.018 TIME LEFT:  2.00D  GRAD.:    29.008 HEAT: 26.60028
 CYCLE:     5 TIME:   0.010 TIME LEFT:  2.00D  GRAD.:    27.566 HEAT: 26.23101
 CYCLE:     6 TIME:   0.010 TIME LEFT:  2.00D  GRAD.:    48.315 HEAT: 26.03777
 CYCLE:     7 TIME:   0.018 TIME LEFT:  2.00D  GRAD.:    38.110 HEAT: 25.78425
 CYCLE:     8 TIME:   0.010 TIME LEFT:  2.00D  GRAD.:    23.044 HEAT: 25.61067
 CYCLE:     9 TIME:   0.010 TIME LEFT:  2.00D  GRAD.:    21.501 HEAT: 25.50232
 CYCLE:    10 TIME:   0.010 TIME LEFT:  2.00D  GRAD.:    20.381 HEAT: 25.43900
 CYCLE:    11 TIME:   0.010 TIME LEFT:  2.00D  GRAD.:    19.540 HEAT: 25.39963
 CYCLE:    12 TIME:   0.018 TIME LEFT:  2.00D  GRAD.:     8.958 HEAT: 25.29828
 CYCLE:    13 TIME:   0.018 TIME LEFT:  2.00D  GRAD.:     7.471 HEAT: 25.27832
 CYCLE:    14 TIME:   0.010 TIME LEFT:  2.00D  GRAD.:     6.718 HEAT: 25.25904
 CYCLE:    15 TIME:   0.010 TIME LEFT:  2.00D  GRAD.:     9.604 HEAT: 25.24947
 CYCLE:    16 TIME:   0.010 TIME LEFT:  2.00D  GRAD.:     9.612 HEAT: 25.23241
 CYCLE:    17 TIME:   0.010 TIME LEFT:  2.00D  GRAD.:    10.228 HEAT: 25.22121
 CYCLE:    18 TIME:   0.010 TIME LEFT:  2.00D  GRAD.:    10.585 HEAT: 25.20822
 CYCLE:    19 TIME:   0.010 TIME LEFT:  2.00D  GRAD.:     8.721 HEAT: 25.18440
 CYCLE:    20 TIME:   0.010 TIME LEFT:  2.00D  GRAD.:     8.385 HEAT: 25.16824
 CYCLE:    21 TIME:   0.018 TIME LEFT:  2.00D  GRAD.:     4.964 HEAT: 25.15017
 CYCLE:    22 TIME:   0.010 TIME LEFT:  2.00D  GRAD.:     6.055 HEAT: 25.14221
 CYCLE:    23 TIME:   0.010 TIME LEFT:  2.00D  GRAD.:     5.057 HEAT: 25.12714
 CYCLE:    24 TIME:   0.010 TIME LEFT:  2.00D  GRAD.:     4.775 HEAT: 25.11106
 CYCLE:    25 TIME:   0.010 TIME LEFT:  2.00D  GRAD.:     4.197 HEAT: 25.08719
 CYCLE:    26 TIME:   0.010 TIME LEFT:  2.00D  GRAD.:     3.983 HEAT: 25.05155
 CYCLE:    27 TIME:   0.010 TIME LEFT:  2.00D  GRAD.:     5.670 HEAT: 25.01608
 CYCLE:    28 TIME:   0.010 TIME LEFT:  2.00D  GRAD.:     7.816 HEAT: 25.01539
 CYCLE:    29 TIME:   0.010 TIME LEFT:  2.00D  GRAD.:     5.186 HEAT: 24.99121
 CYCLE:    30 TIME:   0.010 TIME LEFT:  2.00D  GRAD.:     7.407 HEAT: 24.98960
 CYCLE:    31 TIME:   0.010 TIME LEFT:  2.00D  GRAD.:     3.877 HEAT: 24.96260
 CYCLE:    32 TIME:   0.010 TIME LEFT:  2.00D  GRAD.:     6.344 HEAT: 24.95343
 CYCLE:    33 TIME:   0.010 TIME LEFT:  2.00D  GRAD.:     4.985 HEAT: 24.93158
 CYCLE:    34 TIME:   0.010 TIME LEFT:  2.00D  GRAD.:     7.372 HEAT: 24.92097
 CYCLE:    35 TIME:   0.010 TIME LEFT:  2.00D  GRAD.:     5.048 HEAT: 24.89515
 CYCLE:    36 TIME:   0.010 TIME LEFT:  2.00D  GRAD.:     9.230 HEAT: 24.89183
 CYCLE:    37 TIME:   0.010 TIME LEFT:  2.00D  GRAD.:     5.230 HEAT: 24.85687
 CYCLE:    38 TIME:   0.010 TIME LEFT:  2.00D  GRAD.:     4.097 HEAT: 24.83303
 CYCLE:    39 TIME:   0.010 TIME LEFT:  2.00D  GRAD.:     3.452 HEAT: 24.81061
 CYCLE:    40 TIME:   0.010 TIME LEFT:  2.00D  GRAD.:     6.202 HEAT: 24.79944
 CYCLE:    41 TIME:   0.010 TIME LEFT:  2.00D  GRAD.:     3.328 HEAT: 24.77962
 CYCLE:    42 TIME:   0.010 TIME LEFT:  2.00D  GRAD.:     2.485 HEAT: 24.77061
 CYCLE:    43 TIME:   0.010 TIME LEFT:  2.00D  GRAD.:     1.919 HEAT: 24.75941
 CYCLE:    44 TIME:   0.010 TIME LEFT:  2.00D  GRAD.:     2.037 HEAT: 24.75090
 CYCLE:    45 TIME:   0.010 TIME LEFT:  2.00D  GRAD.:     2.148 HEAT: 24.74510
 CYCLE:    46 TIME:   0.010 TIME LEFT:  2.00D  GRAD.:     2.564 HEAT: 24.73251
 CYCLE:    47 TIME:   0.010 TIME LEFT:  2.00D  GRAD.:     2.674 HEAT: 24.71722
 CYCLE:    48 TIME:   0.010 TIME LEFT:  2.00D  GRAD.:     2.712 HEAT: 24.70472
 CYCLE:    49 TIME:   0.010 TIME LEFT:  2.00D  GRAD.:     2.563 HEAT: 24.69138
 CYCLE:    50 TIME:   0.010 TIME LEFT:  2.00D  GRAD.:     2.526 HEAT: 24.67571
 CYCLE:    51 TIME:   0.010 TIME LEFT:  2.00D  GRAD.:     2.434 HEAT: 24.66248
 CYCLE:    52 TIME:   0.010 TIME LEFT:  2.00D  GRAD.:     2.014 HEAT: 24.65431
 CYCLE:    53 TIME:   0.010 TIME LEFT:  2.00D  GRAD.:     1.713 HEAT: 24.64667
 CYCLE:    54 TIME:   0.010 TIME LEFT:  2.00D  GRAD.:     1.997 HEAT: 24.63636
 CYCLE:    55 TIME:   0.010 TIME LEFT:  2.00D  GRAD.:     1.800 HEAT: 24.63089
 CYCLE:    56 TIME:   0.010 TIME LEFT:  2.00D  GRAD.:     1.422 HEAT: 24.62656
 CYCLE:    57 TIME:   0.010 TIME LEFT:  2.00D  GRAD.:     1.444 HEAT: 24.62288
 CYCLE:    58 TIME:   0.010 TIME LEFT:  2.00D  GRAD.:     1.270 HEAT: 24.61969
 CYCLE:    59 TIME:   0.010 TIME LEFT:  2.00D  GRAD.:     1.077 HEAT: 24.61589
 CYCLE:    60 TIME:   0.010 TIME LEFT:  2.00D  GRAD.:     0.941 HEAT: 24.61345
 CYCLE:    61 TIME:   0.010 TIME LEFT:  2.00D  GRAD.:     0.823 HEAT: 24.61126
 CYCLE:    62 TIME:   0.010 TIME LEFT:  2.00D  GRAD.:     0.740 HEAT: 24.60987
 CYCLE:    63 TIME:   0.010 TIME LEFT:  2.00D  GRAD.:     0.671 HEAT: 24.60888
 CYCLE:    64 TIME:   0.010 TIME LEFT:  2.00D  GRAD.:     0.676 HEAT: 24.60789
 CYCLE:    65 TIME:   0.010 TIME LEFT:  2.00D  GRAD.:     0.757 HEAT: 24.60658
 CYCLE:    66 TIME:   0.010 TIME LEFT:  2.00D  GRAD.:     0.676 HEAT: 24.60542
 CYCLE:    67 TIME:   0.010 TIME LEFT:  2.00D  GRAD.:     0.635 HEAT: 24.60431
 CYCLE:    68 TIME:   0.010 TIME LEFT:  2.00D  GRAD.:     0.682 HEAT: 24.60333
 CYCLE:    69 TIME:   0.010 TIME LEFT:  2.00D  GRAD.:     0.794 HEAT: 24.60205
 CYCLE:    70 TIME:   0.010 TIME LEFT:  2.00D  GRAD.:     0.812 HEAT: 24.60063
 CYCLE:    71 TIME:   0.010 TIME LEFT:  2.00D  GRAD.:     0.758 HEAT: 24.59904
 CYCLE:    72 TIME:   0.010 TIME LEFT:  2.00D  GRAD.:     0.663 HEAT: 24.59821
 CYCLE:    73 TIME:   0.010 TIME LEFT:  2.00D  GRAD.:     1.239 HEAT: 24.59579
 CYCLE:    74 TIME:   0.010 TIME LEFT:  2.00D  GRAD.:     0.952 HEAT: 24.59444
 CYCLE:    75 TIME:   0.011 TIME LEFT:  2.00D  GRAD.:     1.318 HEAT: 24.58917
 CYCLE:    76 TIME:   0.010 TIME LEFT:  2.00D  GRAD.:     1.140 HEAT: 24.58697
 CYCLE:    77 TIME:   0.011 TIME LEFT:  2.00D  GRAD.:     2.396 HEAT: 24.58321
 CYCLE:    78 TIME:   0.010 TIME LEFT:  2.00D  GRAD.:     1.176 HEAT: 24.57888
 CYCLE:    79 TIME:   0.010 TIME LEFT:  2.00D  GRAD.:     0.891 HEAT: 24.57694
 CYCLE:    80 TIME:   0.011 TIME LEFT:  2.00D  GRAD.:     0.935 HEAT: 24.57310
 CYCLE:    81 TIME:   0.011 TIME LEFT:  2.00D  GRAD.:     1.185 HEAT: 24.57022
 CYCLE:    82 TIME:   0.010 TIME LEFT:  2.00D  GRAD.:     1.132 HEAT: 24.56762
 CYCLE:    83 TIME:   0.011 TIME LEFT:  2.00D  GRAD.:     1.252 HEAT: 24.56267
 CYCLE:    84 TIME:   0.011 TIME LEFT:  2.00D  GRAD.:     1.237 HEAT: 24.55994
 CYCLE:    85 TIME:   0.011 TIME LEFT:  2.00D  GRAD.:     2.006 HEAT: 24.54942
 CYCLE:    86 TIME:   0.010 TIME LEFT:  2.00D  GRAD.:     1.810 HEAT: 24.54398
 CYCLE:    87 TIME:   0.011 TIME LEFT:  2.00D  GRAD.:     3.649 HEAT: 24.52540
 CYCLE:    88 TIME:   0.010 TIME LEFT:  2.00D  GRAD.:     2.115 HEAT: 24.51595
 CYCLE:    89 TIME:   0.010 TIME LEFT:  2.00D  GRAD.:     2.228 HEAT: 24.50309
 CYCLE:    90 TIME:   0.011 TIME LEFT:  2.00D  GRAD.:     3.004 HEAT: 24.48109
 CYCLE:    91 TIME:   0.010 TIME LEFT:  2.00D  GRAD.:     3.672 HEAT: 24.45945
 CYCLE:    92 TIME:   0.010 TIME LEFT:  2.00D  GRAD.:     3.448 HEAT: 24.43434
 CYCLE:    93 TIME:   0.020 TIME LEFT:  2.00D  GRAD.:     5.549 HEAT: 24.40662
 CYCLE:    94 TIME:   0.010 TIME LEFT:  2.00D  GRAD.:     5.547 HEAT: 24.39323
 CYCLE:    95 TIME:   0.010 TIME LEFT:  2.00D  GRAD.:     5.470 HEAT: 24.36715
 CYCLE:    96 TIME:   0.010 TIME LEFT:  2.00D  GRAD.:     4.154 HEAT: 24.34772
 CYCLE:    97 TIME:   0.014 TIME LEFT:  2.00D  GRAD.:     4.078 HEAT: 24.32568
 CYCLE:    98 TIME:   0.011 TIME LEFT:  2.00D  GRAD.:     5.028 HEAT: 24.31021
 CYCLE:    99 TIME:   0.010 TIME LEFT:  2.00D  GRAD.:     3.253 HEAT: 24.29957
 CYCLE:   100 TIME:   0.012 TIME LEFT:  2.00D  GRAD.:     4.488 HEAT: 24.28776
 CYCLE:   101 TIME:   0.010 TIME LEFT:  2.00D  GRAD.:     4.105 HEAT: 24.27498
 CYCLE:   102 TIME:   0.010 TIME LEFT:  2.00D  GRAD.:     2.123 HEAT: 24.26353
 CYCLE:   103 TIME:   0.010 TIME LEFT:  2.00D  GRAD.:     2.205 HEAT: 24.25326
 CYCLE:   104 TIME:   0.019 TIME LEFT:  2.00D  GRAD.:     7.592 HEAT: 24.25053
 CYCLE:   105 TIME:   0.010 TIME LEFT:  2.00D  GRAD.:     4.242 HEAT: 24.23877
 CYCLE:   106 TIME:   0.010 TIME LEFT:  2.00D  GRAD.:     1.969 HEAT: 24.22230
 CYCLE:   107 TIME:   0.011 TIME LEFT:  2.00D  GRAD.:     3.096 HEAT: 24.21025
 CYCLE:   108 TIME:   0.011 TIME LEFT:  2.00D  GRAD.:     8.072 HEAT: 24.19588
 CYCLE:   109 TIME:   0.010 TIME LEFT:  2.00D  GRAD.:     2.063 HEAT: 24.17454
 CYCLE:   110 TIME:   0.011 TIME LEFT:  2.00D  GRAD.:     2.241 HEAT: 24.16104
 CYCLE:   111 TIME:   0.011 TIME LEFT:  2.00D  GRAD.:     5.534 HEAT: 24.14649
 CYCLE:   112 TIME:   0.010 TIME LEFT:  2.00D  GRAD.:     3.944 HEAT: 24.13335
 CYCLE:   113 TIME:   0.010 TIME LEFT:  2.00D  GRAD.:     3.320 HEAT: 24.10432
 CYCLE:   114 TIME:   0.010 TIME LEFT:  2.00D  GRAD.:     3.201 HEAT: 24.09065
 CYCLE:   115 TIME:   0.011 TIME LEFT:  2.00D  GRAD.:     9.277 HEAT: 24.08229
 CYCLE:   116 TIME:   0.010 TIME LEFT:  2.00D  GRAD.:     3.095 HEAT: 24.06365
 CYCLE:   117 TIME:   0.011 TIME LEFT:  2.00D  GRAD.:     2.218 HEAT: 24.04904
 CYCLE:   118 TIME:   0.011 TIME LEFT:  2.00D  GRAD.:     6.510 HEAT: 24.02600
 CYCLE:   119 TIME:   0.010 TIME LEFT:  2.00D  GRAD.:     5.132 HEAT: 24.01717
 CYCLE:   120 TIME:   0.010 TIME LEFT:  2.00D  GRAD.:     2.025 HEAT: 24.00129
 CYCLE:   121 TIME:   0.011 TIME LEFT:  2.00D  GRAD.:     2.743 HEAT: 23.99064
 CYCLE:   122 TIME:   0.010 TIME LEFT:  2.00D  GRAD.:     2.757 HEAT: 23.98226
 CYCLE:   123 TIME:   0.010 TIME LEFT:  2.00D  GRAD.:     1.867 HEAT: 23.97643
 CYCLE:   124 TIME:   0.011 TIME LEFT:  2.00D  GRAD.:     3.643 HEAT: 23.97075
 CYCLE:   125 TIME:   0.010 TIME LEFT:  2.00D  GRAD.:     1.726 HEAT: 23.96746
 CYCLE:   126 TIME:   0.011 TIME LEFT:  2.00D  GRAD.:     2.014 HEAT: 23.96273
 CYCLE:   127 TIME:   0.010 TIME LEFT:  2.00D  GRAD.:     3.272 HEAT: 23.95698
 CYCLE:   128 TIME:   0.010 TIME LEFT:  2.00D  GRAD.:     3.130 HEAT: 23.95294
 CYCLE:   129 TIME:   0.010 TIME LEFT:  2.00D  GRAD.:     3.054 HEAT: 23.94082
 CYCLE:   130 TIME:   0.011 TIME LEFT:  2.00D  GRAD.:     4.520 HEAT: 23.92306
 CYCLE:   131 TIME:   0.026 TIME LEFT:  2.00D  GRAD.:     3.629 HEAT: 23.91969
 CYCLE:   132 TIME:   0.010 TIME LEFT:  2.00D  GRAD.:     1.259 HEAT: 23.91125
 CYCLE:   133 TIME:   0.011 TIME LEFT:  2.00D  GRAD.:     2.498 HEAT: 23.89709
 CYCLE:   134 TIME:   0.011 TIME LEFT:  2.00D  GRAD.:     6.847 HEAT: 23.88974
 CYCLE:   135 TIME:   0.010 TIME LEFT:  2.00D  GRAD.:     2.489 HEAT: 23.87750
 CYCLE:   136 TIME:   0.011 TIME LEFT:  2.00D  GRAD.:     1.790 HEAT: 23.86276
 CYCLE:   137 TIME:   0.010 TIME LEFT:  2.00D  GRAD.:     7.392 HEAT: 23.85305
 CYCLE:   138 TIME:   0.010 TIME LEFT:  2.00D  GRAD.:     1.950 HEAT: 23.83687
 CYCLE:   139 TIME:   0.010 TIME LEFT:  2.00D  GRAD.:     1.376 HEAT: 23.82745
 CYCLE:   140 TIME:   0.011 TIME LEFT:  2.00D  GRAD.:     2.371 HEAT: 23.82237
 CYCLE:   141 TIME:   0.010 TIME LEFT:  2.00D  GRAD.:     1.214 HEAT: 23.81904
 CYCLE:   142 TIME:   0.010 TIME LEFT:  2.00D  GRAD.:     1.351 HEAT: 23.81617
 CYCLE:   143 TIME:   0.010 TIME LEFT:  2.00D  GRAD.:     2.082 HEAT: 23.81006
 CYCLE:   144 TIME:   0.010 TIME LEFT:  2.00D  GRAD.:     1.858 HEAT: 23.80306
 CYCLE:   145 TIME:   0.010 TIME LEFT:  2.00D  GRAD.:     2.163 HEAT: 23.79690
 CYCLE:   146 TIME:   0.010 TIME LEFT:  2.00D  GRAD.:     1.641 HEAT: 23.78926
 CYCLE:   147 TIME:   0.014 TIME LEFT:  2.00D  GRAD.:     1.478 HEAT: 23.78204
 CYCLE:   148 TIME:   0.010 TIME LEFT:  2.00D  GRAD.:     2.087 HEAT: 23.77592
 CYCLE:   149 TIME:   0.010 TIME LEFT:  2.00D  GRAD.:     1.797 HEAT: 23.77161
 CYCLE:   150 TIME:   0.010 TIME LEFT:  2.00D  GRAD.:     1.159 HEAT: 23.76638
 CYCLE:   151 TIME:   0.010 TIME LEFT:  2.00D  GRAD.:     0.812 HEAT: 23.76434
 CYCLE:   152 TIME:   0.011 TIME LEFT:  2.00D  GRAD.:     0.542 HEAT: 23.76291
 CYCLE:   153 TIME:   0.010 TIME LEFT:  2.00D  GRAD.:     0.690 HEAT: 23.76239
 CYCLE:   154 TIME:   0.010 TIME LEFT:  2.00D  GRAD.:     0.789 HEAT: 23.76128
 CYCLE:   155 TIME:   0.010 TIME LEFT:  2.00D  GRAD.:     1.030 HEAT: 23.75946
 CYCLE:   156 TIME:   0.010 TIME LEFT:  2.00D  GRAD.:     0.998 HEAT: 23.75761
 CYCLE:   157 TIME:   0.010 TIME LEFT:  2.00D  GRAD.:     0.806 HEAT: 23.75582
 CYCLE:   158 TIME:   0.010 TIME LEFT:  2.00D  GRAD.:     0.642 HEAT: 23.75513
 CYCLE:   159 TIME:   0.010 TIME LEFT:  2.00D  GRAD.:     0.428 HEAT: 23.75442
 CYCLE:   160 TIME:   0.010 TIME LEFT:  2.00D  GRAD.:     0.422 HEAT: 23.75394
 CYCLE:   161 TIME:   0.010 TIME LEFT:  2.00D  GRAD.:     0.297 HEAT: 23.75342
 CYCLE:   162 TIME:   0.010 TIME LEFT:  2.00D  GRAD.:     0.233 HEAT: 23.75323
 CYCLE:   163 TIME:   0.010 TIME LEFT:  2.00D  GRAD.:     0.138 HEAT: 23.75316
 CYCLE:   164 TIME:   0.010 TIME LEFT:  2.00D  GRAD.:     0.122 HEAT: 23.75312
 CYCLE:   165 TIME:   0.009 TIME LEFT:  2.00D  GRAD.:     0.135 HEAT: 23.75308
 CYCLE:   166 TIME:   0.010 TIME LEFT:  2.00D  GRAD.:     0.254 HEAT: 23.75303
 CYCLE:   167 TIME:   0.010 TIME LEFT:  2.00D  GRAD.:     0.198 HEAT: 23.75298
 CYCLE:   168 TIME:   0.010 TIME LEFT:  2.00D  GRAD.:     0.194 HEAT: 23.75286
 CYCLE:   169 TIME:   0.010 TIME LEFT:  2.00D  GRAD.:     0.174 HEAT: 23.75282
 CYCLE:   170 TIME:   0.010 TIME LEFT:  2.00D  GRAD.:     0.181 HEAT: 23.75269
 CYCLE:   171 TIME:   0.010 TIME LEFT:  2.00D  GRAD.:     0.189 HEAT: 23.75261
 CYCLE:   172 TIME:   0.010 TIME LEFT:  2.00D  GRAD.:     0.171 HEAT: 23.75247
 CYCLE:   173 TIME:   0.010 TIME LEFT:  2.00D  GRAD.:     0.152 HEAT: 23.75243
 CYCLE:   174 TIME:   0.010 TIME LEFT:  2.00D  GRAD.:     0.167 HEAT: 23.75238
 CYCLE:   175 TIME:   0.010 TIME LEFT:  2.00D  GRAD.:     0.221 HEAT: 23.75233
 CYCLE:   176 TIME:   0.010 TIME LEFT:  2.00D  GRAD.:     0.226 HEAT: 23.75230
 CYCLE:   177 TIME:   0.010 TIME LEFT:  2.00D  GRAD.:     0.386 HEAT: 23.75214
 CYCLE:   178 TIME:   0.010 TIME LEFT:  2.00D  GRAD.:     0.243 HEAT: 23.75204
 CYCLE:   179 TIME:   0.010 TIME LEFT:  2.00D  GRAD.:     0.102 HEAT: 23.75191
 CYCLE:   180 TIME:   0.010 TIME LEFT:  2.00D  GRAD.:     0.118 HEAT: 23.75185
 CYCLE:   181 TIME:   0.010 TIME LEFT:  2.00D  GRAD.:     0.130 HEAT: 23.75182
 CYCLE:   182 TIME:   0.014 TIME LEFT:  2.00D  GRAD.:     0.088 HEAT: 23.75179
 CYCLE:   183 TIME:   0.010 TIME LEFT:  2.00D  GRAD.:     0.047 HEAT: 23.75178

     RMS GRADIENT =  0.04678  IS LESS THAN CUTOFF =  0.05000



 -------------------------------------------------------------------------------
pm3  precise nosym
 InChI=1S/C11H16/c1-3-8-9(4-2)11-7-5-6-10(8)11/h3,5-6,8-11H,1,4,7H2,2H3



     GEOMETRY OPTIMISED USING EIGENVECTOR FOLLOWING (EF).     
     SCF FIELD WAS ACHIEVED                                   


                              PM3 CALCULATION
                                                       MOPAC2012 (Version: 13.159M)
                                                       Mon Jun  2 11:10:07 2014
                                                       No. of days left =   6




          FINAL HEAT OF FORMATION =         23.75178 KCAL/MOL =      99.37743 KJ/MOL


          TOTAL ENERGY            =      -1549.33746 EV
          ELECTRONIC ENERGY       =      -9453.44583 EV  POINT GROUP:     C1  
          CORE-CORE REPULSION     =       7904.10838 EV
          COSMO AREA              =        199.72 SQUARE ANGSTROMS
          COSMO VOLUME            =        214.19 CUBIC ANGSTROMS

          GRADIENT NORM           =          0.04678
          IONIZATION POTENTIAL    =          9.617236 EV
          HOMO LUMO ENERGIES (EV) =         -9.617  1.012
          NO. OF FILLED LEVELS    =         30
          MOLECULAR WEIGHT        =        148.247

          MOLECULAR DIMENSIONS (Angstroms)

            Atom       Atom       Distance
            H    24    H    20     7.48057
            H    20    H    23     7.26655
            H    21    H    14     3.83178


          SCF CALCULATIONS        =        195
          COMPUTATION TIME        =          1.975 SECONDS




   ATOM   CHEMICAL          X               Y               Z
  NUMBER   SYMBOL      (ANGSTROMS)     (ANGSTROMS)     (ANGSTROMS)
 
     1       C         -0.53279657  *  -0.45593614  *   0.24824356  *
     2       C          0.75068994  *  -1.32559838  *   0.21234836  *
     3       C          1.39905350  *  -0.32321211  *  -0.79652057  *
     4       C          0.08584372  *   0.50742700  *  -0.81457573  *
     5       C         -1.78964799  *  -1.17933877  *  -0.18895989  *
     6       C          1.62607342  *  -1.29396802  *   1.46630095  *
     7       C         -2.99542311  *  -0.26658014  *  -0.17913678  *
     8       C          2.56929415  *   0.24590048  *  -0.06292440  *
     9       C          2.69783086  *  -0.29187470  *   1.15749967  *
    10       C          0.17105679  *   1.92112872  *  -0.37246335  *
    11       C         -0.71005074  *   2.84046283  *  -0.75049541  *
    12       H          0.58508675  *  -2.35224618  *  -0.16480819  *
    13       H         -0.70021082  *   0.03977623  *   1.22946858  *
    14       H          1.69045269  *  -0.72784837  *  -1.78372214  *
    15       H         -0.42949300  *   0.44145676  *  -1.79867442  *
    16       H         -1.95993736  *  -2.04308532  *   0.48398748  *
    17       H         -1.65057346  *  -1.61278845  *  -1.20000217  *
    18       H          1.05660313  *  -1.00272239  *   2.36885582  *
    19       H          2.06950362  *  -2.28268672  *   1.68518151  *
    20       H         -3.89507888  *  -0.79054287  *  -0.52551798  *
    21       H         -3.20522488  *   0.11790985  *   0.82783380  *
    22       H         -2.84498500  *   0.60342851  *  -0.83456655  *
    23       H          3.47708775  *  -0.06384084  *   1.88445167  *
    24       H          3.21568174  *   0.99696877  *  -0.51611080  *
    25       H          1.00102452  *   2.16941209  *   0.30176978  *
    26       H         -1.54499256  *   2.62672859  *  -1.41362698  *
    27       H         -0.65848435  *   3.87245245  *  -0.41787696  *

           Empirical Formula: C11 H16  =    27 atoms



      MOLECULAR POINT GROUP   :   C1  


                  EIGENVALUES  
 -42.90570 -35.66874 -33.47849 -29.89098 -28.16372 -24.11687 -23.45862 -20.80284
 -20.18194 -18.87120 -17.98465 -17.41723 -16.64924 -15.84560 -15.24766 -14.78557
 -14.40428 -14.17698 -13.88020 -13.47846 -12.96346 -12.70792 -12.59890 -12.12167
 -11.83781 -11.70418 -11.61441 -11.33725 -10.05627  -9.61724   1.01208   1.17484
   3.17467   3.26384   3.35709   3.47196   3.59843   3.70263   3.78150   3.88507
   3.94651   3.99813   4.03438   4.09051   4.18566   4.21489   4.30611   4.37806
   4.44226   4.56837   4.72722   4.79948   4.93222   5.01588   5.25020   5.50075
   5.52408   5.85872   5.95548   5.98816


              NET ATOMIC CHARGES AND DIPOLE CONTRIBUTIONS

  ATOM NO.   TYPE          CHARGE      No. of ELECS.   s-Pop       p-Pop       
    1          C          -0.085377        4.0854     1.19663     2.88874
    2          C          -0.103168        4.1032     1.20112     2.90205
    3          C          -0.058502        4.0585     1.18723     2.87128
    4          C          -0.052519        4.0525     1.18266     2.86986
    5          C          -0.089253        4.0893     1.15737     2.93189
    6          C          -0.057381        4.0574     1.15311     2.90427
    7          C          -0.113022        4.1130     1.13879     2.97423
    8          C          -0.143818        4.1438     1.19866     2.94516
    9          C          -0.148510        4.1485     1.20468     2.94383
   10          C          -0.127236        4.1272     1.19356     2.93368
   11          C          -0.167158        4.1672     1.18312     2.98404
   12          H           0.080095        0.9199     0.91990
   13          H           0.082234        0.9178     0.91777
   14          H           0.079300        0.9207     0.92070
   15          H           0.077300        0.9227     0.92270
   16          H           0.049978        0.9500     0.95002
   17          H           0.050354        0.9496     0.94965
   18          H           0.061857        0.9381     0.93814
   19          H           0.055612        0.9444     0.94439
   20          H           0.037211        0.9628     0.96279
   21          H           0.039293        0.9607     0.96071
   22          H           0.042144        0.9579     0.95786
   23          H           0.109204        0.8908     0.89080
   24          H           0.114000        0.8860     0.88600
   25          H           0.106763        0.8932     0.89324
   26          H           0.081448        0.9186     0.91855
   27          H           0.079149        0.9209     0.92085
 DIPOLE           X         Y         Z       TOTAL
 POINT-CHG.    -0.061    -0.266     0.141     0.307
 HYBRID        -0.008     0.040     0.023     0.047
 SUM           -0.069    -0.226     0.164     0.287


          ATOMIC ORBITAL ELECTRON POPULATIONS

    Atom      s        px        py        pz   
    1  C   1.19663   0.93495   0.96069   0.99310
    2  C   1.20112   0.95854   0.98066   0.96285
    3  C   1.18723   0.92748   0.96343   0.98036
    4  C   1.18266   0.95962   0.92469   0.98554
    5  C   1.15737   0.94574   0.97536   1.01079
    6  C   1.15311   0.95684   0.98014   0.96729
    7  C   1.13879   0.96915   0.99278   1.01229
    8  C   1.19866   0.98200   0.99991   0.96324
    9  C   1.20468   0.98547   0.98798   0.97038
   10  C   1.19356   0.99093   0.94917   0.99358
   11  C   1.18312   0.98838   0.98329   1.01236
   12  H   0.91990
   13  H   0.91777
   14  H   0.92070
   15  H   0.92270
   16  H   0.95002
   17  H   0.94965
   18  H   0.93814
   19  H   0.94439
   20  H   0.96279
   21  H   0.96071
   22  H   0.95786
   23  H   0.89080
   24  H   0.88600
   25  H   0.89324
   26  H   0.91855
   27  H   0.92085
 *******************************************************************************
 ** Site#: 14399           For non-commercial use only        Version 13.159M **
 *******************************************************************************
 ** Cite this work as: MOPAC2012, James J. P. Stewart, Stewart Computational  **
 ** Chemistry, Version 13.159M web: HTTP://OpenMOPAC.net  Days remaining:   6 **
 *******************************************************************************
 **                                                                           **
 **                                MOPAC2012                                  **
 **                                                                           **
 *******************************************************************************

                            PM3 CALCULATION RESULTS


 *******************************************************************************
 *  CALCULATION DONE:                                Mon Jun  2 11:10:07 2014  *
 *  PM3      - The PM3 Hamiltonian to be used
 *  OLDGEO   - PREVIOUS GEOMETRY TO BE USED
 *  PRECISE  - CRITERIA TO BE INCREASED BY 100 TIMES
 *  NOSYM    - POINT-GROUP SYMMETRY SET TO C1
 *  T=       - A TIME OF 172800.0 SECONDS REQUESTED
 *  DUMP=N   - RESTART FILE WRITTEN EVERY  7200.000 SECONDS
 *  THERMO   - THERMODYNAMIC QUANTITIES TO BE CALCULATED
 *******************************************************************************
oldgeo thermo nosym precise  pm3

   ATOM   CHEMICAL          X               Y               Z
  NUMBER   SYMBOL      (ANGSTROMS)     (ANGSTROMS)     (ANGSTROMS)
 
     1       C         -0.53279657  *  -0.45593614  *   0.24824356  *
     2       C          0.75068994  *  -1.32559838  *   0.21234836  *
     3       C          1.39905350  *  -0.32321211  *  -0.79652057  *
     4       C          0.08584372  *   0.50742700  *  -0.81457573  *
     5       C         -1.78964799  *  -1.17933877  *  -0.18895989  *
     6       C          1.62607342  *  -1.29396802  *   1.46630095  *
     7       C         -2.99542311  *  -0.26658014  *  -0.17913678  *
     8       C          2.56929415  *   0.24590048  *  -0.06292440  *
     9       C          2.69783086  *  -0.29187470  *   1.15749967  *
    10       C          0.17105679  *   1.92112872  *  -0.37246335  *
    11       C         -0.71005074  *   2.84046283  *  -0.75049541  *
    12       H          0.58508675  *  -2.35224618  *  -0.16480819  *
    13       H         -0.70021082  *   0.03977623  *   1.22946858  *
    14       H          1.69045269  *  -0.72784837  *  -1.78372214  *
    15       H         -0.42949300  *   0.44145676  *  -1.79867442  *
    16       H         -1.95993736  *  -2.04308532  *   0.48398748  *
    17       H         -1.65057346  *  -1.61278845  *  -1.20000217  *
    18       H          1.05660313  *  -1.00272239  *   2.36885582  *
    19       H          2.06950362  *  -2.28268672  *   1.68518151  *
    20       H         -3.89507888  *  -0.79054287  *  -0.52551798  *
    21       H         -3.20522488  *   0.11790985  *   0.82783380  *
    22       H         -2.84498500  *   0.60342851  *  -0.83456655  *
    23       H          3.47708775  *  -0.06384084  *   1.88445167  *
    24       H          3.21568174  *   0.99696877  *  -0.51611080  *
    25       H          1.00102452  *   2.16941209  *   0.30176978  *
    26       H         -1.54499256  *   2.62672859  *  -1.41362698  *
    27       H         -0.65848435  *   3.87245245  *  -0.41787696  *
 


          CARTESIAN COORDINATES 

    NO.       ATOM         X         Y         Z

     1         C       -0.5328   -0.4559    0.2482
     2         C        0.7507   -1.3256    0.2123
     3         C        1.3991   -0.3232   -0.7965
     4         C        0.0858    0.5074   -0.8146
     5         C       -1.7896   -1.1793   -0.1890
     6         C        1.6261   -1.2940    1.4663
     7         C       -2.9954   -0.2666   -0.1791
     8         C        2.5693    0.2459   -0.0629
     9         C        2.6978   -0.2919    1.1575
    10         C        0.1711    1.9211   -0.3725
    11         C       -0.7101    2.8405   -0.7505
    12         H        0.5851   -2.3522   -0.1648
    13         H       -0.7002    0.0398    1.2295
    14         H        1.6905   -0.7278   -1.7837
    15         H       -0.4295    0.4415   -1.7987
    16         H       -1.9599   -2.0431    0.4840
    17         H       -1.6506   -1.6128   -1.2000
    18         H        1.0566   -1.0027    2.3689
    19         H        2.0695   -2.2827    1.6852
    20         H       -3.8951   -0.7905   -0.5255
    21         H       -3.2052    0.1179    0.8278
    22         H       -2.8450    0.6034   -0.8346
    23         H        3.4771   -0.0638    1.8845
    24         H        3.2157    0.9970   -0.5161
    25         H        1.0010    2.1694    0.3018
    26         H       -1.5450    2.6267   -1.4136
    27         H       -0.6585    3.8725   -0.4179

  H: (PM3): J. J. P. STEWART, J. COMP. CHEM. 10, 209 (1989).
  C: (PM3): J. J. P. STEWART, J. COMP. CHEM. 10, 209 (1989).

           Empirical Formula: C11 H16  =    27 atoms



      MOLECULAR POINT GROUP   :   C1  


      RHF CALCULATION, NO. OF DOUBLY OCCUPIED LEVELS =   30



          HEAT OF FORMATION =      23.751775 KCALS/MOLE


          INTERNAL COORDINATE DERIVATIVES

   NUMBER  ATOM       BOND         ANGLE      DIHEDRAL

     1       C     -0.001817    -0.002254    -0.001151
     2       C      0.000042    -0.002988    -0.001080
     3       C      0.001956    -0.000568     0.000724
     4       C     -0.000521     0.003607     0.000623
     5       C      0.000332    -0.000620    -0.001679
     6       C     -0.002843    -0.004872    -0.000987
     7       C     -0.002044     0.000881     0.004013
     8       C      0.003342    -0.014319     0.005038
     9       C     -0.000108     0.005068    -0.007472
    10       C     -0.017897     0.010240    -0.010112
    11       C      0.015996    -0.009793    -0.005049
    12       H      0.008934     0.002155     0.002874
    13       H     -0.004708     0.001267    -0.002589
    14       H     -0.001514    -0.001301    -0.000328
    15       H     -0.005870    -0.002055    -0.001747
    16       H      0.004881     0.008530     0.004102
    17       H      0.002073    -0.000740    -0.000386
    18       H      0.006465     0.007199    -0.001414
    19       H     -0.007913     0.004465    -0.001336
    20       H     -0.001959     0.000057     0.002358
    21       H     -0.003993     0.000697    -0.002252
    22       H      0.001912    -0.001043     0.000378
    23       H      0.000802     0.002134     0.002872
    24       H      0.000122    -0.000618     0.000721
    25       H     -0.002578    -0.003916     0.006552
    26       H      0.006052    -0.001021     0.010510
    27       H      0.000852    -0.000191    -0.003184


          GRADIENT NORM =   0.04544


          TIME FOR SCF CALCULATION =    0.01

          TIME FOR DERIVATIVES     =    0.01

          MOLECULAR WEIGHT =  148.25



          ROTATIONAL CONSTANTS IN CM(-1)

          A =    0.05198324   B =    0.03157862   C =    0.02251474



           PRINCIPAL MOMENTS OF INERTIA IN UNITS OF 10**(-40)*GRAM-CM**2

          A =      538.4961   B =      886.4471   C =     1243.3086


          ORIENTATION OF MOLECULE IN FORCE CALCULATION

    NO.       ATOM         X         Y         Z

     1          C      -0.3720   -0.7967   -0.3523
     2          C       1.1787   -0.7967   -0.3523
     3          C       1.1766    0.7663   -0.3523
     4          C      -0.3757    0.7637   -0.4252
     5          C      -0.9965   -1.5007   -1.5392
     6          C       1.8565   -1.2218    0.9514
     7          C      -2.5065   -1.4239   -1.5072
     8          C       1.8090    1.1441    0.9472
     9          C       2.1887    0.0653    1.6452
    10          C      -1.1082    1.4193    0.6861
    11          C      -2.3442    1.8857    0.5478
    12          H       1.6261   -1.2798   -1.2413
    13          H      -0.8113   -1.1822    0.5937
    14          H       1.6675    1.2655   -1.2085
    15          H      -0.7424    1.1424   -1.4053
    16          H      -0.6686   -2.5592   -1.5428
    17          H      -0.6149   -1.0679   -2.4860
    18          H       1.2009   -1.8547    1.5786
    19          H       2.7729   -1.8119    0.7669
    20          H      -2.9492   -1.9102   -2.3855
    21          H      -2.9191   -1.9149   -0.6158
    22          H      -2.8547   -0.3810   -1.4945
    23          H       2.6889    0.0662    2.6134
    24          H       1.9333    2.1866    1.2388
    25          H      -0.5761    1.4884    1.6438
    26          H      -2.9000    1.8296   -0.3852
    27          H      -2.8880    2.3535    1.3625


    FIRST DERIVATIVES WILL BE USED IN THE CALCULATION OF SECOND DERIVATIVES

          ESTIMATED TIME TO COMPLETE CALCULATION =        4.70 SECONDS

    FOR POINT-GROUP C1   THERE ARE   1 UNIQUE SYMMETRY FUNCTIONS.

 STEP:   1 TIME =     0.05 SECS, INTEGRAL =      0.05 TIME LEFT: 172799.94
 STEP:   2 TIME =     0.04 SECS, INTEGRAL =      0.09 TIME LEFT: 172799.89
 STEP:   3 TIME =     0.05 SECS, INTEGRAL =      0.14 TIME LEFT: 172799.85
 STEP:   4 TIME =     0.05 SECS, INTEGRAL =      0.18 TIME LEFT: 172799.80
 STEP:   5 TIME =     0.04 SECS, INTEGRAL =      0.23 TIME LEFT: 172799.76
 STEP:   6 TIME =     0.04 SECS, INTEGRAL =      0.27 TIME LEFT: 172799.71
 STEP:   7 TIME =     0.04 SECS, INTEGRAL =      0.32 TIME LEFT: 172799.67
 STEP:   8 TIME =     0.04 SECS, INTEGRAL =      0.36 TIME LEFT: 172799.62
 STEP:   9 TIME =     0.04 SECS, INTEGRAL =      0.41 TIME LEFT: 172799.58
 STEP:  10 TIME =     0.04 SECS, INTEGRAL =      0.45 TIME LEFT: 172799.54
 STEP:  11 TIME =     0.04 SECS, INTEGRAL =      0.49 TIME LEFT: 172799.49
 STEP:  12 TIME =     0.04 SECS, INTEGRAL =      0.54 TIME LEFT: 172799.45
 STEP:  13 TIME =     0.04 SECS, INTEGRAL =      0.58 TIME LEFT: 172799.40
 STEP:  14 TIME =     0.04 SECS, INTEGRAL =      0.63 TIME LEFT: 172799.36
 STEP:  15 TIME =     0.04 SECS, INTEGRAL =      0.67 TIME LEFT: 172799.31
 STEP:  16 TIME =     0.04 SECS, INTEGRAL =      0.71 TIME LEFT: 172799.27
 STEP:  17 TIME =     0.04 SECS, INTEGRAL =      0.76 TIME LEFT: 172799.23
 STEP:  18 TIME =     0.04 SECS, INTEGRAL =      0.80 TIME LEFT: 172799.18
 STEP:  19 TIME =     0.04 SECS, INTEGRAL =      0.85 TIME LEFT: 172799.14
 STEP:  20 TIME =     0.04 SECS, INTEGRAL =      0.89 TIME LEFT: 172799.09
 STEP:  21 TIME =     0.04 SECS, INTEGRAL =      0.93 TIME LEFT: 172799.05
 STEP:  22 TIME =     0.05 SECS, INTEGRAL =      0.98 TIME LEFT: 172799.00
 STEP:  23 TIME =     0.04 SECS, INTEGRAL =      1.03 TIME LEFT: 172798.96
 STEP:  24 TIME =     0.05 SECS, INTEGRAL =      1.08 TIME LEFT: 172798.91
 STEP:  25 TIME =     0.05 SECS, INTEGRAL =      1.12 TIME LEFT: 172798.86
 STEP:  26 TIME =     0.05 SECS, INTEGRAL =      1.17 TIME LEFT: 172798.82
 STEP:  27 TIME =     0.05 SECS, INTEGRAL =      1.21 TIME LEFT: 172798.77
 STEP:  28 TIME =     0.05 SECS, INTEGRAL =      1.26 TIME LEFT: 172798.73
 STEP:  29 TIME =     0.05 SECS, INTEGRAL =      1.31 TIME LEFT: 172798.68
 STEP:  30 TIME =     0.04 SECS, INTEGRAL =      1.35 TIME LEFT: 172798.64
 STEP:  31 TIME =     0.04 SECS, INTEGRAL =      1.40 TIME LEFT: 172798.59
 STEP:  32 TIME =     0.05 SECS, INTEGRAL =      1.44 TIME LEFT: 172798.54
 STEP:  33 TIME =     0.04 SECS, INTEGRAL =      1.48 TIME LEFT: 172798.50
 STEP:  34 TIME =     0.05 SECS, INTEGRAL =      1.53 TIME LEFT: 172798.45
 STEP:  35 TIME =     0.05 SECS, INTEGRAL =      1.58 TIME LEFT: 172798.41
 STEP:  36 TIME =     0.04 SECS, INTEGRAL =      1.62 TIME LEFT: 172798.36
 STEP:  37 TIME =     0.05 SECS, INTEGRAL =      1.67 TIME LEFT: 172798.32
 STEP:  38 TIME =     0.05 SECS, INTEGRAL =      1.71 TIME LEFT: 172798.27
 STEP:  39 TIME =     0.04 SECS, INTEGRAL =      1.76 TIME LEFT: 172798.23
 STEP:  40 TIME =     0.05 SECS, INTEGRAL =      1.80 TIME LEFT: 172798.18
 STEP:  41 TIME =     0.05 SECS, INTEGRAL =      1.85 TIME LEFT: 172798.14
 STEP:  42 TIME =     0.04 SECS, INTEGRAL =      1.89 TIME LEFT: 172798.09
 STEP:  43 TIME =     0.05 SECS, INTEGRAL =      1.94 TIME LEFT: 172798.05
 STEP:  44 TIME =     0.05 SECS, INTEGRAL =      1.99 TIME LEFT: 172798.00
 STEP:  45 TIME =     0.05 SECS, INTEGRAL =      2.04 TIME LEFT: 172797.95
 STEP:  46 TIME =     0.05 SECS, INTEGRAL =      2.08 TIME LEFT: 172797.90
 STEP:  47 TIME =     0.04 SECS, INTEGRAL =      2.13 TIME LEFT: 172797.86
 STEP:  48 TIME =     0.05 SECS, INTEGRAL =      2.17 TIME LEFT: 172797.81
 STEP:  49 TIME =     0.05 SECS, INTEGRAL =      2.22 TIME LEFT: 172797.77
 STEP:  50 TIME =     0.05 SECS, INTEGRAL =      2.27 TIME LEFT: 172797.72
 STEP:  51 TIME =     0.05 SECS, INTEGRAL =      2.32 TIME LEFT: 172797.67
 STEP:  52 TIME =     0.06 SECS, INTEGRAL =      2.37 TIME LEFT: 172797.61
 STEP:  53 TIME =     0.05 SECS, INTEGRAL =      2.42 TIME LEFT: 172797.57
 STEP:  54 TIME =     0.05 SECS, INTEGRAL =      2.46 TIME LEFT: 172797.52
 STEP:  55 TIME =     0.05 SECS, INTEGRAL =      2.52 TIME LEFT: 172797.47
 STEP:  56 TIME =     0.05 SECS, INTEGRAL =      2.57 TIME LEFT: 172797.42
 STEP:  57 TIME =     0.05 SECS, INTEGRAL =      2.61 TIME LEFT: 172797.37
 STEP:  58 TIME =     0.05 SECS, INTEGRAL =      2.66 TIME LEFT: 172797.33
 STEP:  59 TIME =     0.05 SECS, INTEGRAL =      2.71 TIME LEFT: 172797.28
 STEP:  60 TIME =     0.05 SECS, INTEGRAL =      2.76 TIME LEFT: 172797.23
 STEP:  61 TIME =     0.05 SECS, INTEGRAL =      2.80 TIME LEFT: 172797.18
 STEP:  62 TIME =     0.05 SECS, INTEGRAL =      2.85 TIME LEFT: 172797.14
 STEP:  63 TIME =     0.04 SECS, INTEGRAL =      2.89 TIME LEFT: 172797.09
 STEP:  64 TIME =     0.05 SECS, INTEGRAL =      2.94 TIME LEFT: 172797.05
 STEP:  65 TIME =     0.04 SECS, INTEGRAL =      2.98 TIME LEFT: 172797.01
 STEP:  66 TIME =     0.05 SECS, INTEGRAL =      3.02 TIME LEFT: 172796.96
 STEP:  67 TIME =     0.05 SECS, INTEGRAL =      3.07 TIME LEFT: 172796.91
 STEP:  68 TIME =     0.05 SECS, INTEGRAL =      3.12 TIME LEFT: 172796.87
 STEP:  69 TIME =     0.04 SECS, INTEGRAL =      3.16 TIME LEFT: 172796.82
 STEP:  70 TIME =     0.05 SECS, INTEGRAL =      3.21 TIME LEFT: 172796.77
 STEP:  71 TIME =     0.04 SECS, INTEGRAL =      3.25 TIME LEFT: 172796.73
 STEP:  72 TIME =     0.05 SECS, INTEGRAL =      3.30 TIME LEFT: 172796.68
 STEP:  73 TIME =     0.05 SECS, INTEGRAL =      3.35 TIME LEFT: 172796.64
 STEP:  74 TIME =     0.05 SECS, INTEGRAL =      3.40 TIME LEFT: 172796.59
 STEP:  75 TIME =     0.05 SECS, INTEGRAL =      3.44 TIME LEFT: 172796.54
 STEP:  76 TIME =     0.04 SECS, INTEGRAL =      3.49 TIME LEFT: 172796.50
 STEP:  77 TIME =     0.05 SECS, INTEGRAL =      3.54 TIME LEFT: 172796.45
 STEP:  78 TIME =     0.04 SECS, INTEGRAL =      3.58 TIME LEFT: 172796.40
 STEP:  79 TIME =     0.05 SECS, INTEGRAL =      3.63 TIME LEFT: 172796.36
 STEP:  80 TIME =     0.05 SECS, INTEGRAL =      3.67 TIME LEFT: 172796.31
 STEP:  81 TIME =     0.05 SECS, INTEGRAL =      3.72 TIME LEFT: 172796.27

(To convert to Hartree/Bohr^2, multiply by (10^(-21) x N x a0^2)/(4.184 x 627.51) = 0.0642)


           FORCE MATRIX IN MILLIDYNES/ANGSTROM


                  C  1       C  2       C  3       C  4       C  5       C  6
 ------------------------------------------------------------------------------
     C    1  14.293241
     C    2   3.347964  14.437141
     C    3   1.771891   3.027510  14.771230
     C    4   3.001103   1.748136   3.198545  14.664950
     C    5   4.298839   0.544700   0.041401   0.531856  14.488805
     C    6   0.501321   3.884449   0.701710   0.044443   0.034660  14.686626
     C    7   0.659825   0.050662   0.004232   0.030447   4.461872   0.006344
     C    8   0.044503   0.841481   4.736852   0.523329   0.003160   1.125535
     C    9   0.029617   0.906109   1.183507   0.041871   0.002815   4.586798
     C   10   0.573984   0.040607   0.532248   5.064654   0.032876   0.006108
     C   11   0.027490   0.005454   0.046279   0.862419   0.004307   0.001358
     H   12   0.434268   4.552335   0.419541   0.028191   0.036474   0.424453
     H   13   4.380636   0.435807   0.025069   0.437496   0.428156   0.031537
     H   14   0.029834   0.410909   4.545932   0.430344   0.003881   0.030917
     H   15   0.440618   0.024452   0.426065   4.352431   0.033304   0.001298
     H   16   0.431374   0.019683   0.003777   0.046646   4.455359   0.001519
     H   17   0.449683   0.021152   0.002130   0.024384   4.432442   0.000962
     H   18   0.033391   0.444224   0.034004   0.002993   0.002167   4.492515
     H   19   0.032240   0.437665   0.023701   0.005740   0.003614   4.523110
     H   20   0.051677   0.008566   0.000707   0.001955   0.450775   0.001260
     H   21   0.022893   0.001728   0.000484   0.002193   0.463394   0.000410
     H   22   0.021932   0.002013   0.000557   0.007784   0.463023   0.000505
     H   23   0.003286   0.042944   0.115003   0.017148   0.000897   0.410996
     H   24   0.002611   0.041375   0.415255   0.007298   0.000672   0.114291
     H   25   0.010779   0.001732   0.027222   0.442091   0.001527   0.001723
     H   26   0.012768   0.001237   0.006173   0.099847   0.001607   0.000331
     H   27   0.017481   0.001602   0.011448   0.136077   0.001660   0.000354


                  C  7       C  8       C  9       C 10       C 11       H 12
 ------------------------------------------------------------------------------
     C    7  14.358820
     C    8   0.001284  18.281213
     C    9   0.001343  10.464503  18.235760
     C   10   0.004362   0.061970   0.013543  18.268529
     C   11   0.008190   0.008810   0.002127  11.047236  18.017033
     H   12   0.002624   0.033536   0.033506   0.002808   0.000502   5.063123
     H   13   0.031553   0.003211   0.002212   0.032066   0.003955   0.027990
     H   14   0.000847   0.414244   0.040147   0.028795   0.005000   0.015977
     H   15   0.008323   0.034450   0.004891   0.433309   0.050611   0.002372
     H   16   0.439673   0.001270   0.000596   0.006191   0.001284   0.012208
     H   17   0.437491   0.000819   0.000836   0.001268   0.000610   0.017921
     H   18   0.000723   0.038110   0.431234   0.001184   0.000481   0.020358
     H   19   0.000943   0.038028   0.429217   0.001003   0.000535   0.032591
     H   20   4.756575   0.000352   0.000279   0.000608   0.001074   0.000638
     H   21   4.728323   0.000343   0.000217   0.000721   0.000848   0.000496
     H   22   4.680406   0.001052   0.000354   0.002936   0.007245   0.000521
     H   23   0.000447   0.447441   5.012824   0.002382   0.000940   0.003933
     H   24   0.000372   5.018332   0.447984   0.008143   0.002333   0.003664
     H   25   0.000792   0.041321   0.011737   4.759549   0.449435   0.000758
     H   26   0.009562   0.001302   0.000918   0.493345   5.045526   0.000258
     H   27   0.000357   0.001679   0.000459   0.461162   5.111043   0.000238


                  H 13       H 14       H 15       H 16       H 17       H 18
 ------------------------------------------------------------------------------
     H   13   4.888053
     H   14   0.000936   5.046792
     H   15   0.029811   0.031389   4.846338
     H   16   0.025057   0.000751   0.002926   5.065327
     H   17   0.041826   0.000568   0.027579   0.570756   5.051375
     H   18   0.027652   0.004450   0.000447   0.000463   0.000449   5.104969
     H   19   0.002394   0.001031   0.000362   0.000241   0.000310   0.564990
     H   20   0.002022   0.000161   0.000479   0.027838   0.031362   0.000159
     H   21   0.020723   0.000174   0.000494   0.025660   0.047655   0.000171
     H   22   0.002154   0.000285   0.010674   0.048329   0.023274   0.000124
     H   23   0.000679   0.013143   0.002068   0.000234   0.000179   0.013985
     H   24   0.000603   0.014789   0.001075   0.000185   0.000197   0.015386
     H   25   0.004185   0.001726   0.033391   0.000509   0.000604   0.000780
     H   26   0.000867   0.000916   0.026924   0.000650   0.000304   0.000158
     H   27   0.001045   0.001448   0.004635   0.000373   0.000174   0.000157


                  H 19       H 20       H 21       H 22       H 23       H 24
 ------------------------------------------------------------------------------
     H   19   5.123867
     H   20   0.000204   5.490200
     H   21   0.000088   0.569994   5.469834
     H   22   0.000083   0.564550   0.575186   5.417851
     H   23   0.014827   0.000110   0.000143   0.000228   5.407496
     H   24   0.015921   0.000098   0.000109   0.000240   0.047415   5.416944
     H   25   0.000865   0.000234   0.000358   0.000488   0.001969   0.017216
     H   26   0.000137   0.000533   0.000505   0.011676   0.000281   0.000536
     H   27   0.000173   0.000304   0.000353   0.000630   0.000323   0.000626


                  H 25       H 26       H 27
 ------------------------------------------
     H   25   5.130284
     H   26   0.118244   5.441996
     H   27   0.079085   0.418839   5.497546


          HEAT OF FORMATION =      23.751775 KCALS/MOLE

          ZERO POINT ENERGY     150.180 KCAL/MOL


           NORMAL COORDINATE ANALYSIS (Total motion = 1 Angstrom)


   Root No.       1         2         3         4         5         6         7         8

                 1 A       2 A       3 A       4 A       5 A       6 A       7 A       8 A   

                  70.8      94.7     102.5     170.3     185.0     216.2     271.4     319.8
  
           1    0.0075    0.0048    0.0055    0.0179   -0.0030   -0.0022   -0.0033    0.0117
           2    0.0097   -0.0178    0.0004   -0.0098   -0.0079   -0.0018   -0.0164   -0.0174
           3   -0.0041    0.0081    0.0117   -0.0182    0.0064    0.0100    0.0111   -0.0106
           4    0.0076    0.0052    0.0058    0.0172   -0.0030   -0.0015   -0.0002    0.0068
           5    0.0121    0.0016    0.0011   -0.0036   -0.0063   -0.0022   -0.0178    0.0010
           6   -0.0146   -0.0050   -0.0013   -0.0073    0.0129   -0.0019    0.0094   -0.0052
           7    0.0041   -0.0153    0.0040    0.0103   -0.0051   -0.0021   -0.0056   -0.0153
           8    0.0122    0.0016    0.0014   -0.0026   -0.0060   -0.0027   -0.0181    0.0008
           9    0.0146    0.0038    0.0046   -0.0128    0.0087   -0.0055   -0.0028    0.0037
          10    0.0051   -0.0152    0.0048    0.0110   -0.0047   -0.0019   -0.0034   -0.0172
          11    0.0097   -0.0180   -0.0004   -0.0106   -0.0079   -0.0012   -0.0164   -0.0154
          12   -0.0020    0.0086   -0.0013   -0.0149    0.0136   -0.0042    0.0115   -0.0004
          13   -0.0036    0.0042   -0.0080   -0.0087   -0.0028    0.0035   -0.0038    0.0229
          14    0.0070   -0.0232   -0.0096    0.0061    0.0182   -0.0133    0.0282   -0.0102
          15    0.0039    0.0116    0.0252   -0.0123   -0.0101    0.0135   -0.0180   -0.0191
          16    0.0150    0.0237    0.0190   -0.0049    0.0048    0.0112    0.0316   -0.0179
          17   -0.0123    0.0029   -0.0035    0.0095    0.0008   -0.0012    0.0019   -0.0062
          18   -0.0268   -0.0145   -0.0099    0.0099    0.0119   -0.0092    0.0007    0.0052
          19   -0.0045    0.0057   -0.0054   -0.0079   -0.0033    0.0043   -0.0052    0.0264
          20   -0.0239    0.0174    0.0531    0.0321    0.0109    0.0011    0.0033    0.0165
          21    0.0401   -0.0129    0.0011    0.0384    0.0030   -0.0107   -0.0030    0.0235
          22   -0.0099   -0.0182    0.0017   -0.0158    0.0186   -0.0147   -0.0180   -0.0074
          23   -0.0127    0.0021   -0.0038    0.0092    0.0012   -0.0019    0.0001   -0.0054
          24    0.0291    0.0052    0.0073   -0.0039   -0.0059    0.0009   -0.0030    0.0018
          25   -0.0037    0.0030    0.0112   -0.0354    0.0374   -0.0158   -0.0069    0.0082
          26   -0.0254    0.0031   -0.0061    0.0149    0.0048   -0.0009    0.0100   -0.0067
          27    0.0062   -0.0048   -0.0014    0.0151   -0.0105    0.0030    0.0055   -0.0082
          28   -0.0104   -0.0153   -0.0090    0.0069   -0.0219    0.0127    0.0086   -0.0083
          29    0.0117   -0.0220    0.0067   -0.0357   -0.0117    0.0225    0.0157    0.0191
          30   -0.0138    0.0107   -0.0148   -0.0032    0.0035   -0.0080    0.0002   -0.0135
          31   -0.0071    0.0126   -0.0273    0.0146   -0.0149    0.0027    0.0038   -0.0131
          32    0.0147    0.0468   -0.0430   -0.0157   -0.0006    0.0013    0.0019    0.0157
          33   -0.0342   -0.0073   -0.0203   -0.0015   -0.0279    0.0127   -0.0039    0.0147
          34    0.0020    0.0032   -0.0023    0.0292   -0.0013   -0.0098   -0.0088    0.0246
          35    0.0300    0.0127    0.0053   -0.0084   -0.0075   -0.0036   -0.0248    0.0124
          36   -0.0271   -0.0122   -0.0076    0.0021    0.0142   -0.0056    0.0086   -0.0021
          37    0.0172    0.0165    0.0141    0.0214   -0.0081   -0.0004   -0.0065    0.0139
          38    0.0099   -0.0237    0.0097   -0.0133   -0.0192    0.0056   -0.0320   -0.0332
          39    0.0007    0.0110    0.0196   -0.0171   -0.0010    0.0131    0.0017   -0.0157
          40    0.0129   -0.0237    0.0067    0.0134   -0.0139    0.0017   -0.0081   -0.0231
          41    0.0305    0.0136    0.0054   -0.0026   -0.0107   -0.0026   -0.0239    0.0130
          42    0.0303    0.0060    0.0084   -0.0106    0.0003   -0.0030   -0.0075    0.0063
          43    0.0171   -0.0221    0.0115    0.0074    0.0002   -0.0055   -0.0093   -0.0196
          44    0.0079   -0.0242   -0.0099   -0.0039   -0.0064   -0.0113   -0.0232   -0.0257
          45   -0.0074    0.0085   -0.0077   -0.0107    0.0115   -0.0066    0.0102   -0.0039
          46    0.0176   -0.0226   -0.0507   -0.0234    0.0028   -0.0060    0.0120    0.0152
          47    0.0135   -0.0314   -0.0228    0.0021    0.0203   -0.0163    0.0335   -0.0122
          48   -0.0121    0.0347    0.0614   -0.0335   -0.0445    0.0295   -0.0746   -0.0325
          49   -0.0337    0.0291    0.0220   -0.0281   -0.0107    0.0209   -0.0195    0.0155
          50    0.0222   -0.0490   -0.0531    0.0122    0.0485   -0.0273    0.0801   -0.0042
          51   -0.0012    0.0098    0.0173   -0.0170    0.0004    0.0139   -0.0012   -0.0190
          52    0.0254    0.0415    0.0299   -0.0096   -0.0010    0.0291    0.0686   -0.0487
          53   -0.0393   -0.0168   -0.0157    0.0012    0.0259   -0.0263   -0.0330    0.0281
          54   -0.0433   -0.0158   -0.0110   -0.0034    0.0313   -0.0161    0.0028    0.0090
          55    0.0240    0.0344    0.0237    0.0079   -0.0106    0.0263    0.0565   -0.0387
          56    0.0068    0.0236    0.0075    0.0224   -0.0224    0.0251    0.0457   -0.0442
          57   -0.0436   -0.0275   -0.0218    0.0318    0.0102   -0.0195   -0.0180    0.0263
          58   -0.0153    0.0065   -0.0124   -0.0462   -0.0060    0.0184   -0.0067   -0.0150
          59   -0.0195    0.0143    0.0314    0.0806    0.0955    0.1317   -0.0396    0.0188
          60    0.0432   -0.0116    0.0166    0.0312   -0.0424   -0.0900    0.0215    0.0438
          61    0.0258   -0.0208   -0.0375    0.0122    0.0024   -0.0218    0.0144    0.0472
          62   -0.0454    0.0434    0.1098   -0.0005   -0.0774   -0.1203    0.0307    0.0336
          63    0.0423   -0.0109    0.0175    0.0298   -0.0431   -0.0899    0.0213    0.0430
          64   -0.0244    0.0328    0.0350    0.0116   -0.0067    0.0168   -0.0249    0.0490
          65   -0.0308    0.0268    0.0672    0.0381    0.0087    0.0038   -0.0029    0.0244
          66    0.0637   -0.0356   -0.0511    0.0974    0.1061    0.1289   -0.0400    0.0275
          67   -0.0100    0.0063    0.0133   -0.0658    0.0670   -0.0305   -0.0201    0.0315
          68   -0.0432    0.0039   -0.0095    0.0225    0.0098    0.0003    0.0228   -0.0072
          69    0.0095   -0.0065   -0.0025    0.0308   -0.0258    0.0105    0.0122   -0.0202
          70   -0.0226   -0.0367   -0.0056   -0.0249    0.0249   -0.0250   -0.0411   -0.0035
          71   -0.0184    0.0019   -0.0050    0.0119    0.0027   -0.0017    0.0043   -0.0067
          72    0.0549    0.0136    0.0150   -0.0096   -0.0144    0.0050   -0.0077    0.0050
          73   -0.0250   -0.0375   -0.0051   -0.0052   -0.0417    0.0339    0.0204    0.0199
          74    0.0116   -0.0824    0.0532   -0.0780   -0.0240    0.0627    0.0626    0.0728
          75   -0.0058    0.0274   -0.0205    0.0067    0.0150   -0.0224   -0.0098   -0.0324
          76    0.0071    0.0348   -0.0308    0.0247    0.0107   -0.0242   -0.0086   -0.0561
          77    0.0147    0.1063   -0.0873    0.0274    0.0120   -0.0349   -0.0457   -0.0288
          78   -0.0426   -0.0240   -0.0156   -0.0100   -0.0440    0.0310    0.0062    0.0434
          79   -0.0187    0.0151   -0.0401    0.0113   -0.0346    0.0206    0.0115    0.0262
          80    0.0175    0.0485   -0.0418   -0.0384   -0.0018    0.0193    0.0360    0.0586
          81   -0.0435   -0.0066   -0.0296    0.0094   -0.0405    0.0144   -0.0184    0.0168


   Root No.       9        10        11        12        13        14        15        16

                 9 A      10 A      11 A      12 A      13 A      14 A      15 A      16 A   

                 333.6     380.9     425.8     484.9     542.7     647.3     672.0     750.0
  
           1   -0.0051    0.0102    0.0117    0.0246   -0.0149    0.0000   -0.0191   -0.0183
           2   -0.0032   -0.0191   -0.0108   -0.0067   -0.0128    0.0305   -0.0131    0.0038
           3   -0.0251   -0.0115   -0.0160    0.0268    0.0278   -0.0126    0.0141    0.0060
           4    0.0010    0.0149    0.0165    0.0293   -0.0212    0.0000   -0.0256   -0.0060
           5    0.0020    0.0140    0.0027    0.0012    0.0228   -0.0008   -0.0170    0.0188
           6    0.0144   -0.0188   -0.0013   -0.0156    0.0107    0.0068   -0.0217   -0.0294
           7   -0.0021   -0.0037    0.0125    0.0091   -0.0208    0.0082    0.0358   -0.0008
           8    0.0008    0.0138    0.0013    0.0037    0.0235    0.0008   -0.0195   -0.0171
           9    0.0222    0.0103    0.0083   -0.0116    0.0161   -0.0084    0.0149   -0.0299
          10    0.0030    0.0002   -0.0004    0.0062   -0.0172   -0.0014    0.0327   -0.0261
          11   -0.0019   -0.0181   -0.0075   -0.0139   -0.0234    0.0063   -0.0111   -0.0027
          12   -0.0323    0.0293    0.0050   -0.0033   -0.0258   -0.0102    0.0208   -0.0124
          13   -0.0249   -0.0198   -0.0165   -0.0085    0.0052    0.0019    0.0029    0.0016
          14   -0.0124   -0.0138   -0.0101    0.0296    0.0117    0.0133   -0.0080    0.0000
          15   -0.0147   -0.0047   -0.0093    0.0300    0.0080    0.0085   -0.0033    0.0005
          16    0.0166   -0.0158    0.0152   -0.0088   -0.0115    0.0051   -0.0219    0.0097
          17    0.0095    0.0113    0.0040   -0.0050    0.0056   -0.0061    0.0273    0.0522
          18    0.0132   -0.0032    0.0050    0.0025   -0.0107    0.0059   -0.0341   -0.0065
          19   -0.0284   -0.0229   -0.0203   -0.0122    0.0069    0.0022    0.0082    0.0053
          20   -0.0060   -0.0065   -0.0057   -0.0034    0.0048    0.0013   -0.0002    0.0011
          21   -0.0082   -0.0108   -0.0084   -0.0121    0.0018    0.0021    0.0012    0.0010
          22   -0.0202    0.0044    0.0530   -0.0134    0.0248   -0.0039    0.0085    0.0160
          23    0.0059    0.0111    0.0009   -0.0030    0.0074   -0.0048    0.0294   -0.0570
          24    0.0332    0.0085   -0.0086    0.0001    0.0074   -0.0038    0.0200   -0.0040
          25    0.0403   -0.0018   -0.0138    0.0012   -0.0074    0.0022    0.0022    0.0427
          26    0.0092    0.0054    0.0001   -0.0034   -0.0062   -0.0020    0.0150   -0.0017
          27    0.0047    0.0022    0.0269   -0.0080    0.0063   -0.0018   -0.0049    0.0644
          28    0.0111    0.0210   -0.0296   -0.0094    0.0172   -0.0212   -0.0100    0.0017
          29   -0.0046    0.0081    0.0034   -0.0061   -0.0241   -0.0535   -0.0100    0.0007
          30   -0.0282    0.0267   -0.0168   -0.0210   -0.0255    0.0143   -0.0114    0.0046
          31    0.0095    0.0206   -0.0290   -0.0085    0.0241    0.0022   -0.0074    0.0015
          32    0.0003   -0.0077    0.0201    0.0056   -0.0124    0.0029    0.0037   -0.0012
          33    0.0161   -0.0201    0.0169    0.0081   -0.0070   -0.0023    0.0023   -0.0003
          34    0.0127    0.0332    0.0281    0.0311   -0.0285   -0.0046   -0.0646   -0.0299
          35    0.0102    0.0341    0.0093    0.0031    0.0431   -0.0158   -0.0355   -0.0198
          36    0.0158   -0.0192    0.0013   -0.0142   -0.0047    0.0126   -0.0325   -0.0205
          37   -0.0150    0.0317    0.0213    0.0545   -0.0168   -0.0133   -0.0284   -0.0053
          38    0.0095   -0.0449   -0.0217   -0.0105   -0.0102    0.0524   -0.0164    0.0012
          39   -0.0243   -0.0118   -0.0160    0.0388    0.0274   -0.0081    0.0083    0.0104
          40    0.0266   -0.0250   -0.0072    0.0047   -0.0274    0.0148    0.0605   -0.0186
          41    0.0038    0.0395    0.0023    0.0204    0.0354   -0.0105   -0.0368    0.0142
          42    0.0399    0.0130   -0.0030   -0.0037    0.0191   -0.0108    0.0192   -0.0214
          43    0.0214   -0.0119    0.0139   -0.0009   -0.0192    0.0013    0.0704   -0.0514
          44    0.0026   -0.0167   -0.0084   -0.0400   -0.0538    0.0466   -0.0030   -0.0134
          45   -0.0362    0.0330   -0.0007   -0.0112   -0.0372    0.0049    0.0103   -0.0073
          46   -0.0337   -0.0324   -0.0268    0.0010    0.0183    0.0023    0.0100    0.0124
          47   -0.0150   -0.0178   -0.0133    0.0327    0.0166    0.0127   -0.0057    0.0037
          48   -0.0059   -0.0020   -0.0077   -0.0076   -0.0367    0.0547   -0.0225   -0.0060
          49   -0.0309   -0.0210   -0.0222   -0.0106    0.0063    0.0072    0.0068    0.0046
          50   -0.0262   -0.0230   -0.0187    0.0653    0.0565   -0.0230    0.0133    0.0117
          51   -0.0230   -0.0091   -0.0151    0.0439    0.0276   -0.0053    0.0076    0.0065
          52    0.0165   -0.0472    0.0356   -0.0602    0.0111    0.0114   -0.0255   -0.0525
          53    0.0291    0.0349   -0.0384    0.0421   -0.0292   -0.0082    0.0456    0.1076
          54    0.0327   -0.0108   -0.0184   -0.0007   -0.0232    0.0098   -0.0188   -0.0145
          55    0.0034   -0.0288    0.0435   -0.0341    0.0001    0.0060   -0.0318   -0.0322
          56   -0.0076   -0.0161    0.0477   -0.0566    0.0319   -0.0032    0.0155   -0.0103
          57    0.0039    0.0236    0.0008    0.0488   -0.0417   -0.0005   -0.0405    0.0028
          58   -0.0336   -0.0186   -0.0204    0.0426    0.0148    0.0186   -0.0080   -0.0011
          59   -0.0022    0.0004   -0.0044   -0.0214   -0.0006   -0.0039    0.0056    0.0040
          60   -0.0078   -0.0173   -0.0095   -0.0309    0.0010   -0.0035    0.0068    0.0031
          61   -0.0279   -0.0319   -0.0233   -0.0342    0.0056    0.0030    0.0106    0.0078
          62   -0.0067   -0.0103   -0.0057   -0.0153    0.0058   -0.0094    0.0082    0.0038
          63   -0.0084   -0.0173   -0.0099   -0.0295    0.0017   -0.0033    0.0071    0.0036
          64   -0.0246   -0.0199   -0.0188   -0.0480    0.0006   -0.0160    0.0257    0.0112
          65   -0.0049   -0.0057   -0.0054   -0.0156    0.0030   -0.0052    0.0060    0.0034
          66   -0.0045   -0.0083   -0.0085   -0.0319   -0.0038    0.0019    0.0041    0.0030
          67    0.0851    0.0013   -0.0596    0.0043    0.0021   -0.0041   -0.0199   -0.0808
          68    0.0098   -0.0052   -0.0037   -0.0009   -0.0273    0.0074   -0.0341   -0.0024
          69   -0.0183    0.0006    0.0508   -0.0096    0.0017    0.0014    0.0061    0.1286
          70   -0.0576    0.0151    0.1184   -0.0402    0.1078   -0.0239   -0.0515   -0.1043
          71    0.0062    0.0097    0.0017   -0.0045    0.0018   -0.0054    0.0335   -0.0471
          72    0.0486    0.0094   -0.0398    0.0172   -0.0082    0.0070    0.0299    0.0103
          73    0.0284    0.0280   -0.0184   -0.0084    0.0452    0.0100   -0.0237    0.0134
          74   -0.0096    0.0704    0.0187   -0.0102   -0.0254    0.0129    0.0059   -0.0091
          75   -0.0364    0.0173   -0.0232   -0.0204   -0.0404   -0.0080   -0.0041   -0.0020
          76   -0.0246    0.0379   -0.0694   -0.0383    0.0003   -0.0660   -0.0471    0.0192
          77    0.0119   -0.0872    0.0241    0.0244   -0.0218   -0.1679    0.0038   -0.0088
          78    0.0363   -0.0266    0.0414    0.0255    0.0082    0.0483    0.0271   -0.0111
          79    0.0435    0.0017    0.0134    0.0235    0.0579    0.1095    0.0395   -0.0178
          80   -0.0058    0.0542    0.0361    0.0016    0.0129    0.2662    0.0327   -0.0015
          81    0.0426   -0.0691    0.0372    0.0326    0.0004   -0.0821    0.0184   -0.0137


   Root No.      17        18        19        20        21        22        23        24

                17 A      18 A      19 A      20 A      21 A      22 A      23 A      24 A   

                 765.4     815.0     836.3     891.4     906.3     928.4     948.8     961.9
  
           1    0.0061   -0.0035   -0.0005   -0.0219    0.0006   -0.0041    0.0033    0.0154
           2    0.0085    0.0105    0.0046    0.0052    0.0089    0.0149   -0.0146   -0.0091
           3   -0.0094   -0.0071   -0.0073    0.0161   -0.0152   -0.0053    0.0031   -0.0120
           4    0.0068    0.0034    0.0087    0.0062   -0.0029    0.0017   -0.0034   -0.0170
           5   -0.0184   -0.0151   -0.0173    0.0070   -0.0003   -0.0076    0.0274   -0.0054
           6   -0.0323   -0.0057   -0.0108   -0.0021   -0.0034    0.0000    0.0134    0.0071
           7   -0.0121   -0.0156   -0.0203   -0.0021   -0.0173    0.0149   -0.0006    0.0015
           8   -0.0308   -0.0120   -0.0190    0.0087   -0.0028    0.0088   -0.0174    0.0129
           9    0.0106    0.0218    0.0273   -0.0049    0.0093   -0.0114    0.0063   -0.0105
          10   -0.0038   -0.0097   -0.0107    0.0175    0.0079   -0.0094    0.0061    0.0058
          11    0.0017   -0.0135    0.0129    0.0023   -0.0007   -0.0169    0.0112    0.0043
          12   -0.0034    0.0031   -0.0155    0.0167    0.0215   -0.0032   -0.0033    0.0035
          13    0.0018    0.0022   -0.0004   -0.0004   -0.0003    0.0002    0.0004    0.0000
          14    0.0144    0.0296   -0.0104   -0.0063    0.0014    0.0013   -0.0017    0.0011
          15    0.0115   -0.0046    0.0136   -0.0119    0.0088    0.0008    0.0018    0.0028
          16   -0.0155    0.0093    0.0165    0.0293   -0.0119    0.0083   -0.0027    0.0028
          17    0.0240   -0.0033   -0.0054   -0.0045    0.0009    0.0005   -0.0034    0.0096
          18   -0.0051   -0.0081   -0.0098   -0.0026    0.0074   -0.0015   -0.0061   -0.0036
          19    0.0063    0.0042    0.0030   -0.0036    0.0038    0.0002   -0.0008    0.0051
          20    0.0023    0.0066   -0.0029   -0.0043   -0.0025   -0.0031    0.0049    0.0051
          21    0.0026    0.0008    0.0039   -0.0075    0.0071    0.0023   -0.0008    0.0117
          22   -0.0207    0.0097    0.0048   -0.0199    0.0040   -0.0019   -0.0110   -0.0237
          23   -0.0121    0.0125    0.0131   -0.0106   -0.0096    0.0075   -0.0069   -0.0066
          24    0.0112    0.0016    0.0028   -0.0027   -0.0129    0.0119   -0.0084    0.0108
          25   -0.0058    0.0014   -0.0014   -0.0086    0.0066   -0.0038    0.0043    0.0101
          26    0.0077    0.0046    0.0062   -0.0002    0.0010   -0.0019    0.0029   -0.0038
          27    0.0277   -0.0073   -0.0064    0.0058    0.0004   -0.0012    0.0025   -0.0062
          28    0.0000    0.0042    0.0011    0.0013    0.0038   -0.0114   -0.0050    0.0011
          29    0.0006   -0.0003    0.0013   -0.0040   -0.0077   -0.0258   -0.0116    0.0034
          30    0.0019   -0.0071    0.0039   -0.0056   -0.0079    0.0096    0.0042    0.0016
          31    0.0000    0.0050    0.0015    0.0028    0.0080   -0.0036   -0.0022    0.0001
          32    0.0003   -0.0024    0.0003   -0.0054   -0.0091   -0.0041   -0.0043    0.0011
          33    0.0004   -0.0030    0.0033   -0.0104   -0.0190    0.0050    0.0027   -0.0044
          34    0.0111    0.0020    0.0126   -0.0250    0.0234   -0.0302    0.0375   -0.0288
          35   -0.0306   -0.0005    0.0132    0.0180    0.0175   -0.0584    0.1135   -0.0490
          36   -0.0235   -0.0141   -0.0254   -0.0223    0.0005    0.0120   -0.0147    0.0243
          37    0.0285   -0.0102    0.0035   -0.0485    0.0024   -0.0280    0.0194    0.0176
          38    0.0121   -0.0012    0.0406    0.0190   -0.0012    0.0283   -0.0233   -0.0444
          39    0.0031   -0.0138    0.0091    0.0086   -0.0178   -0.0101    0.0066   -0.0253
          40    0.0057   -0.0373   -0.0130   -0.0168   -0.0650    0.0130    0.0556    0.0219
          41   -0.0148   -0.0068   -0.0278    0.0489    0.0267    0.0129   -0.0846    0.0108
          42    0.0299    0.0126    0.0256    0.0095   -0.0014   -0.0082   -0.0034    0.0010
          43    0.0077   -0.0043    0.0190    0.0269    0.0194   -0.0419    0.0420   -0.0162
          44    0.0191   -0.0190    0.0495    0.0118    0.0416   -0.0257    0.0455   -0.0014
          45   -0.0010   -0.0020   -0.0122    0.0166    0.0326    0.0048   -0.0019    0.0098
          46   -0.0019   -0.0553    0.0517    0.0057    0.0402    0.0364   -0.0398   -0.0205
          47    0.0123    0.0082    0.0080   -0.0042    0.0144    0.0132   -0.0145   -0.0061
          48    0.0438    0.1260   -0.0576   -0.0001    0.0117    0.0108   -0.0179   -0.0064
          49    0.0109    0.0638   -0.0464    0.0167   -0.0385   -0.0297    0.0310   -0.0256
          50   -0.0107   -0.0935    0.0667   -0.0099    0.0118    0.0023    0.0050   -0.0084
          51    0.0037   -0.0326    0.0276   -0.0056   -0.0027   -0.0114    0.0176   -0.0123
          52    0.0012   -0.0178   -0.0310   -0.0450    0.0239   -0.0059   -0.0081    0.0345
          53   -0.0253    0.0370    0.0522    0.0610   -0.0347    0.0210   -0.0064    0.0574
          54   -0.0405    0.0061    0.0015   -0.0108    0.0063    0.0054   -0.0148    0.0781
          55    0.0256   -0.0086   -0.0076   -0.0042    0.0076    0.0043   -0.0303   -0.0314
          56    0.0843   -0.0383   -0.0568   -0.0738    0.0396   -0.0130   -0.0299   -0.0241
          57    0.0028    0.0208    0.0437    0.0645   -0.0241    0.0224   -0.0555   -0.0634
          58    0.0357    0.0232    0.0185   -0.0675    0.0377    0.0019    0.0123    0.0870
          59   -0.0101   -0.0329    0.0191    0.0099    0.0086    0.0105   -0.0155   -0.0134
          60   -0.0057    0.0130   -0.0164    0.0184   -0.0166   -0.0060    0.0035   -0.0215
          61    0.0059    0.0726   -0.0596    0.0314   -0.0544   -0.0306    0.0260   -0.0428
          62   -0.0108   -0.0386    0.0235    0.0077    0.0123    0.0121   -0.0142   -0.0096
          63   -0.0047    0.0101   -0.0128    0.0164   -0.0135   -0.0046    0.0020   -0.0198
          64   -0.0203   -0.0860    0.0555    0.0254    0.0335    0.0314   -0.0422   -0.0299
          65   -0.0072   -0.0261    0.0164    0.0058    0.0086    0.0085   -0.0103   -0.0071
          66   -0.0026    0.0187   -0.0183    0.0169   -0.0162   -0.0061    0.0034   -0.0209
          67    0.1900   -0.0832   -0.0772    0.0144   -0.0133    0.0120   -0.0204   -0.0770
          68    0.0029   -0.0066   -0.0010    0.0362    0.0208   -0.0194    0.0247   -0.0149
          69   -0.0735    0.0364    0.0326   -0.0063    0.0103   -0.0087    0.0142    0.0390
          70    0.1356   -0.0087    0.0313    0.0908   -0.0659    0.0436   -0.0044    0.1269
          71    0.0037    0.0147    0.0191   -0.0078   -0.0047   -0.0028    0.0113   -0.0135
          72   -0.1134    0.0019   -0.0296   -0.0603   -0.0008    0.0303   -0.0772   -0.0303
          73    0.0052    0.0133    0.0133   -0.0241   -0.0106    0.0848    0.0273   -0.0194
          74   -0.0005    0.0088   -0.0144    0.0008    0.0532    0.2041    0.0838   -0.0112
          75   -0.0008   -0.0127   -0.0020    0.0088   -0.0037   -0.0607   -0.0205    0.0142
          76    0.0059    0.0021    0.0221   -0.0508   -0.0654    0.0686    0.0262   -0.0256
          77   -0.0013    0.0205   -0.0223    0.0222    0.0647    0.1320    0.0579   -0.0074
          78   -0.0032   -0.0022   -0.0084    0.0218    0.0233   -0.0466   -0.0179    0.0118
          79   -0.0061    0.0079   -0.0189    0.0654    0.0977   -0.0240    0.0042    0.0145
          80   -0.0010   -0.0310    0.0129   -0.0026   -0.0351   -0.0086    0.0182   -0.0082
          81   -0.0032    0.0152   -0.0184    0.0311    0.0574   -0.0062   -0.0059    0.0111


   Root No.      25        26        27        28        29        30        31        32

                25 A      26 A      27 A      28 A      29 A      30 A      31 A      32 A   

                 975.6     993.2    1000.6    1028.7    1041.3    1047.1    1064.9    1073.8
  
           1    0.0077   -0.0144   -0.0060    0.0045    0.0130   -0.0006   -0.0211   -0.0129
           2   -0.0098   -0.0036   -0.0145   -0.0033   -0.0007    0.0067   -0.0062    0.0128
           3    0.0085   -0.0036   -0.0057    0.0030   -0.0007   -0.0023    0.0026   -0.0104
           4   -0.0033   -0.0047   -0.0052   -0.0024   -0.0140   -0.0086   -0.0071    0.0105
           5   -0.0194    0.0017   -0.0025   -0.0017   -0.0042   -0.0044    0.0024   -0.0010
           6   -0.0140   -0.0061    0.0025    0.0019   -0.0025   -0.0204   -0.0225   -0.0064
           7   -0.0147    0.0022   -0.0036   -0.0060   -0.0050    0.0165    0.0063    0.0113
           8    0.0117    0.0079    0.0070   -0.0005    0.0024    0.0025   -0.0034   -0.0078
           9    0.0043    0.0056   -0.0037    0.0018    0.0058    0.0036   -0.0018   -0.0050
          10    0.0102    0.0202    0.0008    0.0021    0.0010   -0.0167   -0.0074    0.0000
          11    0.0191   -0.0150    0.0109    0.0071    0.0056    0.0000    0.0026   -0.0220
          12   -0.0064    0.0044   -0.0031    0.0017    0.0000   -0.0055   -0.0036    0.0059
          13   -0.0017   -0.0013   -0.0014    0.0009   -0.0011   -0.0046   -0.0059   -0.0016
          14   -0.0081    0.0050   -0.0097    0.0079    0.0079   -0.0067    0.0071   -0.0129
          15    0.0019   -0.0008    0.0009   -0.0051    0.0018    0.0007    0.0002    0.0063
          16   -0.0089   -0.0004    0.0179    0.0030    0.0125   -0.0004    0.0021   -0.0027
          17    0.0060   -0.0067    0.0023    0.0025   -0.0002   -0.0296    0.0063    0.0014
          18    0.0086    0.0069   -0.0050   -0.0027   -0.0041    0.0103    0.0183    0.0037
          19   -0.0008    0.0069    0.0096   -0.0016   -0.0013    0.0072    0.0076    0.0024
          20    0.0026    0.0021    0.0141   -0.0054   -0.0072    0.0044   -0.0025    0.0101
          21   -0.0114    0.0115    0.0147    0.0027   -0.0065   -0.0007    0.0027   -0.0016
          22    0.0002   -0.0048    0.0162    0.0039    0.0140    0.0057    0.0004   -0.0010
          23   -0.0068   -0.0113    0.0016    0.0000   -0.0033    0.0092   -0.0071    0.0021
          24   -0.0032   -0.0134   -0.0042   -0.0011   -0.0092    0.0036   -0.0019    0.0033
          25    0.0071    0.0029   -0.0207   -0.0059   -0.0297    0.0058   -0.0034   -0.0069
          26   -0.0019    0.0035   -0.0026   -0.0011   -0.0009    0.0139   -0.0088   -0.0020
          27   -0.0069    0.0002    0.0091    0.0026    0.0158    0.0126   -0.0189    0.0004
          28   -0.0023   -0.0040    0.0004    0.0117   -0.0024    0.0025   -0.0003    0.0027
          29   -0.0058   -0.0023    0.0001    0.0286   -0.0074    0.0053   -0.0004    0.0084
          30    0.0011   -0.0104    0.0029   -0.0089   -0.0042    0.0086    0.0050   -0.0005
          31   -0.0021   -0.0042   -0.0001   -0.0194    0.0038   -0.0006    0.0005   -0.0039
          32   -0.0055    0.0080   -0.0025   -0.0483    0.0074   -0.0065    0.0002   -0.0049
          33    0.0040    0.0211   -0.0037    0.0150    0.0014   -0.0083   -0.0044    0.0024
          34   -0.0051   -0.0114   -0.0247   -0.0040   -0.0295   -0.0725    0.0338    0.0788
          35   -0.0479    0.0311   -0.0108   -0.0012    0.0148   -0.0007    0.1142    0.0768
          36    0.0016   -0.0245   -0.0025    0.0007   -0.0217   -0.0555   -0.0626   -0.0148
          37    0.0384   -0.0527   -0.0424    0.0137    0.0772    0.0438    0.0216   -0.0633
          38    0.0257   -0.0108   -0.0049   -0.0502   -0.0445   -0.0007   -0.0631    0.1260
          39    0.0369   -0.0244   -0.0193   -0.0124    0.0115    0.0151   -0.0012    0.0129
          40   -0.0320   -0.0158   -0.0178   -0.0116   -0.0220    0.0657    0.1066   -0.0353
          41    0.0773    0.1056   -0.0032   -0.0142   -0.0002    0.0460   -0.0445    0.0187
          42    0.0330    0.0517   -0.0181   -0.0096   -0.0056    0.0590    0.0314   -0.0162
          43    0.0393    0.0985    0.0036   -0.0061    0.0269   -0.0787   -0.0095   -0.0252
          44    0.0481   -0.0183    0.0448   -0.0451    0.0153   -0.0369    0.0051   -0.0334
          45   -0.0057   -0.0269    0.0096   -0.0163   -0.0062    0.0039   -0.0012    0.0105
          46   -0.0517    0.0111   -0.0705    0.0240    0.0210   -0.0246    0.0145    0.0000
          47   -0.0236    0.0083   -0.0320    0.0145    0.0147   -0.0129    0.0130   -0.0112
          48   -0.0454    0.0220   -0.0583    0.0371    0.0344   -0.0334    0.0338   -0.0441
          49    0.0506   -0.0230    0.0086   -0.0250   -0.0105   -0.0115   -0.0014    0.0154
          50    0.0242   -0.0145    0.0105   -0.0286   -0.0098    0.0096   -0.0079    0.0386
          51    0.0379   -0.0188    0.0134   -0.0319   -0.0097    0.0044   -0.0047    0.0356
          52    0.0308    0.0055   -0.0348    0.0004    0.0520    0.0134    0.0427    0.0641
          53   -0.0029   -0.0172    0.0357    0.0182    0.0865   -0.0529    0.0343    0.0365
          54    0.0397    0.0011   -0.0243    0.0111    0.1257    0.0016    0.0863    0.1064
          55    0.0176    0.0034    0.0144   -0.0045   -0.0495   -0.0208    0.0637   -0.0200
          56    0.0459    0.0020   -0.0234   -0.0089   -0.0696   -0.0485    0.0762   -0.0040
          57    0.0100   -0.0002    0.0659   -0.0021   -0.0832   -0.0309    0.1064   -0.0678
          58   -0.0449    0.0663    0.1234    0.0000   -0.0455    0.0223    0.0145    0.0169
          59   -0.0105   -0.0041   -0.0328    0.0081    0.0130   -0.0081    0.0032   -0.0131
          60    0.0190   -0.0161   -0.0195   -0.0056    0.0057   -0.0018   -0.0033    0.0039
          61    0.0732   -0.0409   -0.0140   -0.0338    0.0070    0.0220   -0.0036    0.0370
          62   -0.0123   -0.0014   -0.0268    0.0098    0.0102   -0.0080    0.0039   -0.0125
          63    0.0167   -0.0138   -0.0189   -0.0048    0.0068   -0.0005    0.0005    0.0029
          64   -0.0295    0.0001   -0.0815    0.0299    0.0396   -0.0173    0.0270   -0.0461
          65   -0.0084   -0.0001   -0.0183    0.0061    0.0072   -0.0044    0.0044   -0.0072
          66    0.0188   -0.0154   -0.0196   -0.0052    0.0068   -0.0007   -0.0011    0.0041
          67   -0.0366   -0.0085    0.0795    0.0162    0.0788    0.0050   -0.0193    0.0105
          68    0.0058    0.0731   -0.0094   -0.0141    0.0158    0.1266    0.0216   -0.0454
          69    0.0159    0.0053   -0.0422   -0.0087   -0.0402    0.0127   -0.0104   -0.0082
          70    0.0057   -0.0203   -0.0408   -0.0096   -0.0440   -0.0206    0.0491    0.0068
          71   -0.0147   -0.0029   -0.0101   -0.0011   -0.0048    0.0251   -0.0424    0.0035
          72    0.0228   -0.0353    0.0618    0.0076    0.0212   -0.0355    0.0990   -0.0064
          73    0.0152    0.0196   -0.0049   -0.0271    0.0219   -0.0103   -0.0001   -0.0198
          74    0.0378   -0.0100    0.0130   -0.0820    0.0113   -0.0027    0.0044   -0.0197
          75   -0.0118   -0.0230    0.0049    0.0207   -0.0191    0.0163    0.0045    0.0140
          76    0.0245    0.0729   -0.0120    0.0692    0.0087   -0.0272   -0.0157    0.0033
          77    0.0359   -0.0336    0.0153    0.1640   -0.0290    0.0266    0.0015    0.0184
          78   -0.0144   -0.0243    0.0028   -0.0503    0.0004    0.0062    0.0055   -0.0034
          79    0.0056   -0.0842    0.0192    0.0780   -0.0217    0.0362    0.0113    0.0013
          80    0.0320    0.0188    0.0032    0.1956   -0.0231    0.0037   -0.0073    0.0171
          81   -0.0125   -0.0398    0.0063   -0.0601    0.0013    0.0111    0.0073   -0.0063


   Root No.      33        34        35        36        37        38        39        40

                33 A      34 A      35 A      36 A      37 A      38 A      39 A      40 A   

[...]
 T-DIPOLE    0.0758        C  3 --  H 14           +7.8% ( 39.5%)     1.6%
 TRAVEL      0.0833        C  1 --  C  3           +7.5% ( 38.8%)    53.3%
 RED. MASS   0.7384        C  3 --  C  4           +7.5% ( 38.6%)    11.3%
 EFF. MASS   6.8721

 VIBRATION   56   56A       ATOM PAIR        ENERGY CONTRIBUTION    RADIAL
 FREQ.      1426.34        C  5 --  C  7          +15.7% ( 50.9%)    98.8%
 T-DIPOLE    0.0433        C  7 --  H 21          +11.8% ( 44.1%)     4.1%
 TRAVEL      0.0944        C  7 --  H 22          +11.0% ( 42.7%)     3.1%
 RED. MASS   0.6595        C  5 --  H 17          +10.8% ( 42.2%)     4.5%
 EFF. MASS   5.3090        C  7 --  H 20          +10.8% ( 42.2%)     3.5%
                           C  5 --  H 16          +10.6% ( 41.9%)     4.6%

 VIBRATION   57   57A       ATOM PAIR        ENERGY CONTRIBUTION    RADIAL
 FREQ.      1449.08        C  1 --  C  5          +11.7% ( 58.0%)    87.7%
 T-DIPOLE    0.0360        C  1 --  C  4          +11.1% ( 56.6%)    51.7%
 TRAVEL      0.0683        C  1 --  C  2           +8.5% ( 49.5%)    60.4%
 RED. MASS   1.6715        C  1 --  H 13           +7.3% ( 46.0%)     0.0%
 EFF. MASS   9.9679

 VIBRATION   58   58A       ATOM PAIR        ENERGY CONTRIBUTION    RADIAL
 FREQ.      1819.16        C  8 --  C  9          +45.8% (100.1%)   100.0%
 T-DIPOLE    0.1394        C  6 --  C  9          +14.0% ( 55.4%)    26.1%
 TRAVEL      0.0559        C  3 --  C  8          +13.8% ( 54.9%)    25.4%
 RED. MASS   5.3941        C  9 --  H 23          +13.1% ( 53.5%)     9.6%
 EFF. MASS  11.8817        C  8 --  H 24          +12.8% ( 53.0%)     9.8%

 VIBRATION   59   59A       ATOM PAIR        ENERGY CONTRIBUTION    RADIAL
 FREQ.      1860.26        C 10 --  C 11          +44.8% ( 99.1%)    98.8%
 T-DIPOLE    0.1498        C  4 --  C 10          +16.9% ( 60.8%)    54.7%
 TRAVEL      0.0554        C 10 --  H 25          +15.4% ( 58.0%)     3.9%
 RED. MASS   5.2771        C 11 --  H 26          +10.8% ( 48.7%)    10.8%
 EFF. MASS  11.7995        C 11 --  H 27          +10.6% ( 48.2%)    13.2%

 VIBRATION   60   60A       ATOM PAIR        ENERGY CONTRIBUTION    RADIAL
 FREQ.      2925.14        C  4 --  H 15          +88.3% ( 96.2%)   100.0%
 T-DIPOLE    0.0704        C  1 --  H 13           +6.5% ( 26.1%)    99.9%
 TRAVEL      0.1260        C  1 --  C  4           +1.1% ( 10.8%)    15.0%
 RED. MASS   0.7986        C  4 --  C 10           +1.0% ( 10.2%)    12.2%
 EFF. MASS   1.4521

 VIBRATION   61   61A       ATOM PAIR        ENERGY CONTRIBUTION    RADIAL
 FREQ.      2938.47        C  1 --  H 13          +77.5% ( 90.2%)   100.0%
 T-DIPOLE    0.1165        C  4 --  H 15           +6.5% ( 26.1%)    99.9%
 TRAVEL      0.1255        C  5 --  H 17           +6.3% ( 25.7%)    96.7%
 RED. MASS   0.6255        C  5 --  H 16           +5.1% ( 23.2%)    95.6%
 EFF. MASS   1.4570

 VIBRATION   62   62A       ATOM PAIR        ENERGY CONTRIBUTION    RADIAL
 FREQ.      2951.82        C  5 --  H 17          +46.1% ( 70.3%)    96.9%
 T-DIPOLE    0.0385        C  5 --  H 16          +40.4% ( 65.8%)    96.1%
 TRAVEL      0.1223        C  1 --  H 13          +10.5% ( 33.5%)   100.0%
 RED. MASS   0.4162        C  1 --  C  5           +1.1% ( 10.7%)     1.0%
 EFF. MASS   1.5280

 VIBRATION   63   63A       ATOM PAIR        ENERGY CONTRIBUTION    RADIAL
 FREQ.      2972.84        C  6 --  H 18          +50.2% ( 73.5%)    97.0%
 T-DIPOLE    0.0361        C  6 --  H 19          +43.8% ( 68.7%)    96.2%
 TRAVEL      0.1214        C  2 --  H 12           +3.3% ( 18.8%)    99.9%
 RED. MASS   0.4823        C  2 --  C  6           +1.2% ( 11.2%)     0.5%
 EFF. MASS   1.5399

 VIBRATION   64   64A       ATOM PAIR        ENERGY CONTRIBUTION    RADIAL
 FREQ.      2992.81        C  3 --  H 14          +66.2% ( 83.3%)   100.0%
 T-DIPOLE    0.0964        C  2 --  H 12          +27.6% ( 53.8%)   100.0%
 TRAVEL      0.1244        C  2 --  C  3           +1.1% ( 10.8%)     1.3%
 RED. MASS   0.5237        C  6 --  H 18           +1.0% ( 10.1%)    98.5%
 EFF. MASS   1.4557

 VIBRATION   65   65A       ATOM PAIR        ENERGY CONTRIBUTION    RADIAL
 FREQ.      2999.68        C  2 --  H 12          +64.2% ( 81.8%)   100.0%
 T-DIPOLE    0.1791        C  3 --  H 14          +28.9% ( 54.9%)   100.0%
 TRAVEL      0.1246        C  6 --  H 18           +1.7% ( 13.5%)    99.0%
 RED. MASS   0.5035        C  2 --  C  3           +1.0% ( 10.5%)    85.6%
 EFF. MASS   1.4491

 VIBRATION   66   66A       ATOM PAIR        ENERGY CONTRIBUTION    RADIAL
 FREQ.      3030.73        C  5 --  H 16          +52.8% ( 71.6%)    98.2%
 T-DIPOLE    0.0267        C  5 --  H 17          +45.2% ( 66.2%)    97.2%
 TRAVEL      0.1321        C  5 --  C  7           +0.6% (  7.8%)    25.9%
 RED. MASS   0.4793        C  1 --  C  5           +0.6% (  7.7%)    29.3%
 EFF. MASS   1.2757

 VIBRATION   67   67A       ATOM PAIR        ENERGY CONTRIBUTION    RADIAL
 FREQ.      3032.45        C 10 --  H 25          +96.2% ( 99.5%)   100.0%
 T-DIPOLE    0.3064        C 10 --  C 11           +1.5% ( 12.2%)    31.6%
 TRAVEL      0.1215        C  4 --  C 10           +1.4% ( 11.9%)    15.0%
 RED. MASS   0.9124        C 11 --  H 27           +0.8% (  8.8%)    94.1%
 EFF. MASS   1.5074

 VIBRATION   68   68A       ATOM PAIR        ENERGY CONTRIBUTION    RADIAL
 FREQ.      3050.03        C  6 --  H 19          +53.6% ( 72.3%)    98.0%
 T-DIPOLE    0.0908        C  6 --  H 18          +44.6% ( 65.9%)    96.9%
 TRAVEL      0.1312        C  2 --  C  6           +0.7% (  8.3%)    41.2%
 RED. MASS   0.4846        C  6 --  C  9           +0.7% (  8.2%)    30.9%
 EFF. MASS   1.2840

 VIBRATION   69   69A       ATOM PAIR        ENERGY CONTRIBUTION    RADIAL
 FREQ.      3069.86        C  7 --  H 22          +68.0% ( 85.1%)    98.9%
 T-DIPOLE    0.0303        C  7 --  H 21          +25.7% ( 52.2%)    91.4%
 TRAVEL      0.1210        C  7 --  H 20           +4.8% ( 22.6%)    54.8%
 RED. MASS   0.5577        C  5 --  C  7           +1.0% ( 10.2%)     0.0%
 EFF. MASS   1.4993

 VIBRATION   70   70A       ATOM PAIR        ENERGY CONTRIBUTION    RADIAL
 FREQ.      3084.53        C  7 --  H 20          +55.3% ( 76.7%)    98.1%
 T-DIPOLE    0.0032        C  7 --  H 21          +38.6% ( 64.1%)    94.9%
 TRAVEL      0.1206        C  7 --  H 22           +4.6% ( 22.2%)    50.8%
 RED. MASS   0.4856        C  5 --  C  7           +1.0% ( 10.3%)     0.0%
 EFF. MASS   1.5041

 VIBRATION   71   71A       ATOM PAIR        ENERGY CONTRIBUTION    RADIAL
 FREQ.      3114.11        C  9 --  H 23          +57.0% ( 76.7%)   100.0%
 T-DIPOLE    0.3664        C  8 --  H 24          +40.4% ( 64.6%)   100.0%
 TRAVEL      0.1216        C  8 --  C  9           +1.1% ( 10.8%)     0.6%
 RED. MASS   0.4784        C  6 --  C  9           +0.9% (  9.4%)    26.2%
 EFF. MASS   1.4642

 VIBRATION   72   72A       ATOM PAIR        ENERGY CONTRIBUTION    RADIAL
 FREQ.      3128.00        C 11 --  H 26          +96.0% ( 99.4%)   100.0%
 T-DIPOLE    0.2058        C 11 --  H 27           +2.5% ( 16.0%)    44.2%
 TRAVEL      0.1193        C 10 --  C 11           +1.4% ( 11.8%)    33.0%
 RED. MASS   0.9116
 EFF. MASS   1.5140

 VIBRATION   73   73A       ATOM PAIR        ENERGY CONTRIBUTION    RADIAL
 FREQ.      3133.03        C  8 --  H 24          +56.0% ( 76.2%)    99.9%
 T-DIPOLE    0.3509        C  9 --  H 23          +39.5% ( 64.0%)    99.9%
 TRAVEL      0.1144        C  8 --  C  9           +2.4% ( 15.9%)    99.2%
 RED. MASS   0.4796        C  3 --  C  8           +1.1% ( 10.5%)    20.5%
 EFF. MASS   1.6440

 VIBRATION   74   74A       ATOM PAIR        ENERGY CONTRIBUTION    RADIAL
 FREQ.      3147.38        C 11 --  H 27          +95.8% ( 98.8%)    99.9%
 T-DIPOLE    0.2464        C 11 --  H 26           +2.0% ( 14.3%)     3.0%
 TRAVEL      0.1199        C 10 --  C 11           +1.5% ( 12.5%)    60.1%
 RED. MASS   0.8922        C 10 --  H 25           +0.7% (  8.2%)    94.8%
 EFF. MASS   1.4891

 VIBRATION   75   75A       ATOM PAIR        ENERGY CONTRIBUTION    RADIAL
 FREQ.      3176.33        C  7 --  H 20          +39.4% ( 60.5%)    97.9%
 T-DIPOLE    0.0157        C  7 --  H 21          +35.0% ( 57.0%)    97.3%
 TRAVEL      0.1365        C  7 --  H 22          +25.2% ( 48.4%)    95.4%
 RED. MASS   0.3353        C  5 --  C  7           +0.3% (  5.2%)    97.3%
 EFF. MASS   1.1390

 SYMMETRY NUMBER FOR POINT-GROUP C1  =  1


          SYSTEM IS A GROUND STATE


    NULL



          MOLECULE IS NOT LINEAR

          THERE ARE 75 GENUINE VIBRATIONS IN THIS SYSTEM
          THIS THERMODYNAMICS CALCULATION IS LIMITED TO
          MOLECULES WHICH HAVE NO INTERNAL ROTATIONS




                    CALCULATED THERMODYNAMIC PROPERTIES
                                          *
   TEMP. (K)   PARTITION FUNCTION   H.O.F.    ENTHALPY  HEAT CAPACITY ENTROPY
                                   KCAL/MOL   CAL/MOLE    CAL/K/MOL  CAL/K/MOL


 298.00  VIB.     0.5664D+03                  4842.2209    35.7619    28.8467
         ROT.     0.8691D+06                   888.2813     2.9808    30.1562
         INT.     0.4923D+09                  5730.5023    38.7427    59.0029
         TRA.     0.1745D+28                  1480.4688     4.9680    40.8894
         TOT.                       23.752    7210.9711    43.7107    99.8923

 200.00  VIB.     0.4179D+02                  2053.4088    21.6935    17.6848
         ROT.     0.4778D+06                   596.1620     2.9808    28.9675
         INT.     0.1997D+08                  2649.5708    24.6743    46.6523
         TRA.     0.9595D+27                   993.6033     4.9680    38.9082
         TOT.                       20.184    3643.1740    29.6423    85.5605

 210.00  VIB.     0.5415D+02                  2276.6408    22.9605    18.7737
         ROT.     0.5141D+06                   625.9700     2.9808    29.1129
         INT.     0.2784D+08                  2902.6108    25.9413    47.8867
         TRA.     0.1032D+28                  1043.2834     4.9680    39.1506
         TOT.                       20.487    3945.8943    30.9093    87.0373

 220.00  VIB.     0.7027D+02                  2512.7692    24.2727    19.8720
         ROT.     0.5513D+06                   655.7781     2.9808    29.2516
         INT.     0.3874D+08                  3168.5473    27.2535    49.1236
         TRA.     0.1107D+28                  1092.9636     4.9680    39.3817
         TOT.                       20.802    4261.5109    32.2215    88.5053

 230.00  VIB.     0.9132D+02                  2762.2428    25.6292    20.9807
         ROT.     0.5893D+06                   685.5862     2.9808    29.3841
         INT.     0.5381D+08                  3447.8291    28.6100    50.3648
         TRA.     0.1183D+28                  1142.6437     4.9680    39.6026
         TOT.                       21.131    4590.4728    33.5781    89.9674

 240.00  VIB.     0.1189D+03                  3025.4936    27.0277    22.1009
         ROT.     0.6281D+06                   715.3943     2.9808    29.5110
         INT.     0.7465D+08                  3740.8879    30.0085    51.6118
         TRA.     0.1261D+28                  1192.3239     4.9680    39.8140
         TOT.                       21.474    4933.2118    34.9765    91.4258

 250.00  VIB.     0.1549D+03                  3302.9251    28.4648    23.2332
         ROT.     0.6678D+06                   745.2024     2.9808    29.6327
         INT.     0.1035D+09                  4048.1275    31.4456    52.8658
         TRA.     0.1341D+28                  1242.0041     4.9680    40.0168
         TOT.                       21.831    5290.1316    36.4136    92.8826

 260.00  VIB.     0.2023D+03                  3594.9041    29.9365    24.3782
         ROT.     0.7082D+06                   775.0105     2.9808    29.7496
         INT.     0.1433D+09                  4369.9146    32.9173    54.1277
         TRA.     0.1422D+28                  1291.6842     4.9680    40.2117
         TOT.                       22.202    5661.5989    37.8853    94.3394

 270.00  VIB.     0.2646D+03                  3901.7545    31.4382    25.5360
         ROT.     0.7495D+06                   804.8186     2.9808    29.8621
         INT.     0.1983D+09                  4706.5732    34.4191    55.3981
         TRA.     0.1505D+28                  1341.3644     4.9680    40.3992
         TOT.                       22.589    6047.9375    39.3871    95.7973

 280.00  VIB.     0.3467D+03                  4223.7533    32.9653    26.7069
         ROT.     0.7915D+06                   834.6267     2.9808    29.9705
         INT.     0.2744D+09                  5058.3800    35.9461    56.6774
         TRA.     0.1589D+28                  1391.0445     4.9680    40.5798
         TOT.                       22.990    6449.4246    40.9141    97.2572

 290.00  VIB.     0.4551D+03                  4561.1284    34.5127    27.8906
         ROT.     0.8343D+06                   864.4348     2.9808    30.0751
         INT.     0.3797D+09                  5425.5632    37.4935    57.9657
         TRA.     0.1675D+28                  1440.7247     4.9680    40.7542
         TOT.                       23.407    6866.2879    42.4615    98.7199

 300.00  VIB.     0.5984D+03                  4914.0582    36.0755    29.0870
         ROT.     0.8778D+06                   894.2429     2.9808    30.1761
         INT.     0.5253D+09                  5808.3012    39.0563    59.2631
         TRA.     0.1763D+28                  1490.4049     4.9680    40.9226
         TOT.                       23.840    7298.7060    44.0243   100.1857

 310.00  VIB.     0.7884D+03                  5282.6727    37.6488    30.2955
         ROT.     0.9221D+06                   924.0510     2.9808    30.2739
         INT.     0.7270D+09                  6206.7237    40.6296    60.5694
         TRA.     0.1851D+28                  1540.0850     4.9680    41.0855
         TOT.                       24.288    7746.8088    45.5976   101.6549

 320.00  VIB.     0.1041D+04                  5667.0546    39.2282    31.5158
         ROT.     0.9670D+06                   953.8591     2.9808    30.3685
         INT.     0.1006D+10                  6620.9138    42.2090    61.8843
         TRA.     0.1942D+28                  1589.7652     4.9680    41.2432
         TOT.                       24.751    8210.6790    47.1770   103.1275

 330.00  VIB.     0.1376D+04                  6067.2425    40.8093    32.7471
         ROT.     0.1013D+07                   983.6672     2.9808    30.4602
         INT.     0.1394D+10                  7050.9098    43.7901    63.2073
         TRA.     0.2034D+28                  1639.4454     4.9680    41.3961
         TOT.                       25.231    8690.3551    48.7581   104.6034

 340.00  VIB.     0.1823D+04                  6483.2335    42.3882    33.9888
         ROT.     0.1059D+07                  1013.4753     2.9808    30.5492
         INT.     0.1931D+10                  7496.7088    45.3690    64.5380
         TRA.     0.2127D+28                  1689.1255     4.9680    41.5444
         TOT.                       25.727    9185.8344    50.3370   106.0824

 350.00  VIB.     0.2420D+04                  6914.9867    43.9612    35.2402
         ROT.     0.1106D+07                  1043.2834     2.9808    30.6356
         INT.     0.2677D+10                  7958.2701    46.9420    65.8759
         TRA.     0.2221D+28                  1738.8057     4.9680    41.6884
         TOT.                       26.238    9697.0758    51.9100   107.5643

 360.00  VIB.     0.3218D+04                  7362.4268    45.5251    36.5006
         ROT.     0.1154D+07                  1073.0915     2.9808    30.7196
         INT.     0.3713D+10                  8435.5183    48.5059    67.2202
         TRA.     0.2317D+28                  1788.4859     4.9680    41.8284
         TOT.                       26.765   10224.0041    53.4739   109.0486

 370.00  VIB.     0.4286D+04                  7825.4476    47.0769    37.7692
         ROT.     0.1202D+07                  1102.8996     2.9808    30.8013
         INT.     0.5153D+10                  8928.3472    50.0577    68.5704
         TRA.     0.2414D+28                  1838.1660     4.9680    41.9645
         TOT.                       27.307   10766.5132    55.0257   110.5349

 380.00  VIB.     0.5720D+04                  8303.9159    48.6141    39.0451
         ROT.     0.1251D+07                  1132.7077     2.9808    30.8807
         INT.     0.7158D+10                  9436.6236    51.5950    69.9258
         TRA.     0.2513D+28                  1887.8462     4.9680    42.0970
         TOT.                       27.865   11324.4698    56.5630   112.0228

 390.00  VIB.     0.7646D+04                  8797.6745    50.1346    40.3275
         ROT.     0.1301D+07                  1162.5158     2.9808    30.9582
         INT.     0.9948D+10                  9960.1903    53.1154    71.2857
         TRA.     0.2613D+28                  1937.5263     4.9680    42.2260
         TOT.                       28.439   11897.7166    58.0834   113.5117

 400.00  VIB.     0.1024D+05                  9306.5460    51.6364    41.6158
         ROT.     0.1351D+07                  1192.3239     2.9808    31.0336
         INT.     0.1384D+11                 10498.8699    54.6172    72.6494
         TRA.     0.2714D+28                  1987.2065     4.9680    42.3518
         TOT.                       29.027   12486.0764    59.5853   115.0013

   *: NOTE: HEATS OF FORMATION ARE RELATIVE TO THE
            ELEMENTS IN THEIR STANDARD STATE AT 298K
              (=  Standard Enthalpy of Formation).

            Hvib:  Zero-point energy is not included.
                   frequencies of less than zero cm-1 are not included.
            Hrot = (3/2)RT
            Htra = (3/2)RT + pV = (5/2)RT

            Heat capacity is Cp, not Cv

           For more information, see: HTTP://OpenMOPAC.net/Manual/thermochemistry.html


           FORCE CONSTANT IN CARTESIAN COORDINATES (Millidynes/A)

    ATOM   CHEMICAL       X               Y               Z
   NUMBER   SYMBOL  FORCE CONSTANT  FORCE CONSTANT  FORCE CONSTANT

      1       C        8.080551        7.549010        8.733284
      2       C        8.030555        7.582254        8.967193
      3       C        7.935326        7.591560        9.546565
      4       C        8.234648        7.404059        9.165698
      5       C        8.491065        8.315556        8.286772
      6       C        8.122702        9.474317        7.715037
      7       C        8.305028        8.219158        8.342424
      8       C        4.228000       14.517627        8.756774
      9       C        4.672239       11.860779       10.744917
     10       C       13.780941        4.801153        8.742445
     11       C       13.664145        4.258999        8.558775
     12       H        1.454927        1.497813        3.430926
     13       H        1.378368        1.219193        3.640228
     14       H        1.541959        1.553670        3.212210
     15       H        1.177163        1.210398        3.814495
     16       H        1.063051        4.620052        0.694053
     17       H        1.199893        1.428177        3.770103
     18       H        2.286762        2.007703        2.074265
     19       H        3.721350        1.822500        0.842670
     20       H        1.416550        1.614793        3.762636
     21       H        1.322008        1.639901        3.821446
     22       H        1.134979        4.919704        0.671317
     23       H        1.408034        0.713631        4.298070
     24       H        0.483277        4.957424        0.975516
     25       H        1.717682        0.453819        4.035619
     26       H        1.876294        0.435383        4.137895
     27       H        1.815968        1.293130        3.371597



 TOTAL CPU TIME:             5.74 SECONDS

 == MOPAC DONE ==
