 *******************************************************************************
 ** Site#: 14399           For non-commercial use only        Version 13.159M **
 *******************************************************************************
 ** Cite this work as: MOPAC2012, James J. P. Stewart, Stewart Computational  **
 ** Chemistry, Version 13.159M web: HTTP://OpenMOPAC.net  Days remaining:   6 **
 *******************************************************************************
 **                                                                           **
 **                                MOPAC2012                                  **
 **                                                                           **
 *******************************************************************************

                            PM3 CALCULATION RESULTS


 *******************************************************************************
 *  CALCULATION DONE:                                Mon Jun  2 11:13:47 2014  *
 *  PM3      - The PM3 Hamiltonian to be used
 *  PRECISE  - CRITERIA TO BE INCREASED BY 100 TIMES
 *  NOSYM    - POINT-GROUP SYMMETRY SET TO C1
 *  T=       - A TIME OF 172800.0 SECONDS REQUESTED
 *  DUMP=N   - RESTART FILE WRITTEN EVERY  7200.000 SECONDS
 *******************************************************************************
pm3  precise nosym
 InChI=1S/C10H12/c1-3-6-9(2)10-7-4-5-8-10/h4-10H,1H2,2H3

   ATOM   CHEMICAL          X               Y               Z
  NUMBER   SYMBOL      (ANGSTROMS)     (ANGSTROMS)     (ANGSTROMS)
 
     1       C          0.37310000  *  -0.55260000  *   0.39650000  *
     2       C         -0.86290000  *  -0.44830000  *  -0.52260000  *
     3       C          0.44440000  *  -1.89420000  *   1.13410000  *
     4       C         -0.98970000  *   0.89670000  *  -1.17980000  *
     5       C         -2.16900000  *  -0.48830000  *   0.21770000  *
     6       C          1.64010000  *  -0.38100000  *  -0.39870000  *
     7       C         -2.12190000  *   1.49340000  *  -0.85010000  *
     8       C         -2.86650000  *   0.61900000  *   0.03100000  *
     9       C          3.27610000  *   1.60240000  *   0.03800000  *
    10       C          2.46030000  *   0.61110000  *  -0.18020000  *
    11       H          0.29880000  *   0.24120000  *   1.18090000  *
    12       H         -0.85250000  *  -1.24560000  *  -1.30250000  *
    13       H          0.45180000  *  -2.75230000  *   0.42300000  *
    14       H         -0.41660000  *  -2.02260000  *   1.82780000  *
    15       H          1.36180000  *  -1.95290000  *   1.76460000  *
    16       H         -0.25560000  *   1.33370000  *  -1.84940000  *
    17       H         -2.52270000  *  -1.31960000  *   0.81880000  *
    18       H         -2.44090000  *   2.46940000  *  -1.20040000  *
    19       H         -3.84430000  *   0.82230000  *   0.45500000  *
    20       H          1.87130000  *  -1.07800000  *  -1.19870000  *
    21       H          2.95740000  *   2.61800000  *  -0.17060000  *
    22       H          4.20760000  *   1.42840000  *   0.56560000  *
 


          CARTESIAN COORDINATES 

    NO.       ATOM         X         Y         Z

     1         C        0.3731   -0.5526    0.3965
     2         C       -0.8629   -0.4483   -0.5226
     3         C        0.4444   -1.8942    1.1341
     4         C       -0.9897    0.8967   -1.1798
     5         C       -2.1690   -0.4883    0.2177
     6         C        1.6401   -0.3810   -0.3987
     7         C       -2.1219    1.4934   -0.8501
     8         C       -2.8665    0.6190    0.0310
     9         C        3.2761    1.6024    0.0380
    10         C        2.4603    0.6111   -0.1802
    11         H        0.2988    0.2412    1.1809
    12         H       -0.8525   -1.2456   -1.3025
    13         H        0.4518   -2.7523    0.4230
    14         H       -0.4166   -2.0226    1.8278
    15         H        1.3618   -1.9529    1.7646
    16         H       -0.2556    1.3337   -1.8494
    17         H       -2.5227   -1.3196    0.8188
    18         H       -2.4409    2.4694   -1.2004
    19         H       -3.8443    0.8223    0.4550
    20         H        1.8713   -1.0780   -1.1987
    21         H        2.9574    2.6180   -0.1706
    22         H        4.2076    1.4284    0.5656

  H: (PM3): J. J. P. STEWART, J. COMP. CHEM. 10, 209 (1989).
  C: (PM3): J. J. P. STEWART, J. COMP. CHEM. 10, 209 (1989).

           Empirical Formula: C10 H12  =    22 atoms



      MOLECULAR POINT GROUP   :   C1  


      RHF CALCULATION, NO. OF DOUBLY OCCUPIED LEVELS =   26

      Geometry optimization using EF

          DIAGONAL MATRIX USED AS START HESSIAN

 CYCLE:     1 TIME:   0.010 TIME LEFT:  2.00D  GRAD.:   114.518 HEAT: 81.45119
 CYCLE:     2 TIME:   0.020 TIME LEFT:  2.00D  GRAD.:    70.708 HEAT: 79.57526
 CYCLE:     3 TIME:   0.007 TIME LEFT:  2.00D  GRAD.:    35.365 HEAT: 78.05031
 CYCLE:     4 TIME:   0.013 TIME LEFT:  2.00D  GRAD.:    64.459 HEAT: 77.85493
 CYCLE:     5 TIME:   0.007 TIME LEFT:  2.00D  GRAD.:    45.526 HEAT: 77.25189
 CYCLE:     6 TIME:   0.007 TIME LEFT:  2.00D  GRAD.:    61.779 HEAT: 77.06871
 CYCLE:     7 TIME:   0.007 TIME LEFT:  2.00D  GRAD.:    43.772 HEAT: 76.37021
 CYCLE:     8 TIME:   0.013 TIME LEFT:  2.00D  GRAD.:    35.495 HEAT: 76.05377
 CYCLE:     9 TIME:   0.007 TIME LEFT:  2.00D  GRAD.:    18.866 HEAT: 75.60392
 CYCLE:    10 TIME:   0.017 TIME LEFT:  2.00D  GRAD.:    28.152 HEAT: 75.47419
 CYCLE:    11 TIME:   0.007 TIME LEFT:  2.00D  GRAD.:    15.664 HEAT: 75.17148
 CYCLE:    12 TIME:   0.013 TIME LEFT:  2.00D  GRAD.:    25.615 HEAT: 75.11639
 CYCLE:    13 TIME:   0.007 TIME LEFT:  2.00D  GRAD.:    18.787 HEAT: 74.94121
 CYCLE:    14 TIME:   0.013 TIME LEFT:  2.00D  GRAD.:    21.013 HEAT: 74.90780
 CYCLE:    15 TIME:   0.007 TIME LEFT:  2.00D  GRAD.:    14.434 HEAT: 74.78839
 CYCLE:    16 TIME:   0.013 TIME LEFT:  2.00D  GRAD.:    17.541 HEAT: 74.78739
 CYCLE:    17 TIME:   0.007 TIME LEFT:  2.00D  GRAD.:    11.962 HEAT: 74.71145
 CYCLE:    18 TIME:   0.007 TIME LEFT:  2.00D  GRAD.:    17.112 HEAT: 74.70401
 CYCLE:    19 TIME:   0.007 TIME LEFT:  2.00D  GRAD.:     9.234 HEAT: 74.63185
 CYCLE:    20 TIME:   0.013 TIME LEFT:  2.00D  GRAD.:    10.474 HEAT: 74.62094
 CYCLE:    21 TIME:   0.007 TIME LEFT:  2.00D  GRAD.:     6.666 HEAT: 74.58680
 CYCLE:    22 TIME:   0.019 TIME LEFT:  2.00D  GRAD.:     5.126 HEAT: 74.57462
 CYCLE:    23 TIME:   0.007 TIME LEFT:  2.00D  GRAD.:     3.546 HEAT: 74.56182
 CYCLE:    24 TIME:   0.007 TIME LEFT:  2.00D  GRAD.:     5.896 HEAT: 74.54802
 CYCLE:    25 TIME:   0.007 TIME LEFT:  2.00D  GRAD.:     5.011 HEAT: 74.52783
 CYCLE:    26 TIME:   0.007 TIME LEFT:  2.00D  GRAD.:     7.091 HEAT: 74.51306
 CYCLE:    27 TIME:   0.007 TIME LEFT:  2.00D  GRAD.:     6.309 HEAT: 74.50111
 CYCLE:    28 TIME:   0.007 TIME LEFT:  2.00D  GRAD.:     7.193 HEAT: 74.49029
 CYCLE:    29 TIME:   0.007 TIME LEFT:  2.00D  GRAD.:     3.622 HEAT: 74.47199
 CYCLE:    30 TIME:   0.007 TIME LEFT:  2.00D  GRAD.:     3.690 HEAT: 74.45653
 CYCLE:    31 TIME:   0.007 TIME LEFT:  2.00D  GRAD.:     3.035 HEAT: 74.44281
 CYCLE:    32 TIME:   0.007 TIME LEFT:  2.00D  GRAD.:     1.828 HEAT: 74.43479
 CYCLE:    33 TIME:   0.007 TIME LEFT:  2.00D  GRAD.:     1.429 HEAT: 74.43069
 CYCLE:    34 TIME:   0.007 TIME LEFT:  2.00D  GRAD.:     1.712 HEAT: 74.42593
 CYCLE:    35 TIME:   0.007 TIME LEFT:  2.00D  GRAD.:     1.705 HEAT: 74.42293
 CYCLE:    36 TIME:   0.007 TIME LEFT:  2.00D  GRAD.:     2.288 HEAT: 74.42180
 CYCLE:    37 TIME:   0.007 TIME LEFT:  2.00D  GRAD.:     1.523 HEAT: 74.41919
 CYCLE:    38 TIME:   0.007 TIME LEFT:  2.00D  GRAD.:     1.149 HEAT: 74.41722
 CYCLE:    39 TIME:   0.007 TIME LEFT:  2.00D  GRAD.:     0.837 HEAT: 74.41549
 CYCLE:    40 TIME:   0.007 TIME LEFT:  2.00D  GRAD.:     0.757 HEAT: 74.41430
 CYCLE:    41 TIME:   0.007 TIME LEFT:  2.00D  GRAD.:     0.693 HEAT: 74.41329
 CYCLE:    42 TIME:   0.007 TIME LEFT:  2.00D  GRAD.:     0.584 HEAT: 74.41215
 CYCLE:    43 TIME:   0.007 TIME LEFT:  2.00D  GRAD.:     0.502 HEAT: 74.41154
 CYCLE:    44 TIME:   0.007 TIME LEFT:  2.00D  GRAD.:     0.476 HEAT: 74.41102
 CYCLE:    45 TIME:   0.008 TIME LEFT:  2.00D  GRAD.:     0.535 HEAT: 74.41041
 CYCLE:    46 TIME:   0.007 TIME LEFT:  2.00D  GRAD.:     0.577 HEAT: 74.40956
 CYCLE:    47 TIME:   0.007 TIME LEFT:  2.00D  GRAD.:     0.531 HEAT: 74.40870
 CYCLE:    48 TIME:   0.007 TIME LEFT:  2.00D  GRAD.:     0.437 HEAT: 74.40808
 CYCLE:    49 TIME:   0.007 TIME LEFT:  2.00D  GRAD.:     0.412 HEAT: 74.40751
 CYCLE:    50 TIME:   0.007 TIME LEFT:  2.00D  GRAD.:     0.426 HEAT: 74.40711
 CYCLE:    51 TIME:   0.007 TIME LEFT:  2.00D  GRAD.:     0.388 HEAT: 74.40669
 CYCLE:    52 TIME:   0.007 TIME LEFT:  2.00D  GRAD.:     0.332 HEAT: 74.40635
 CYCLE:    53 TIME:   0.007 TIME LEFT:  2.00D  GRAD.:     0.298 HEAT: 74.40608
 CYCLE:    54 TIME:   0.007 TIME LEFT:  2.00D  GRAD.:     0.341 HEAT: 74.40580
 CYCLE:    55 TIME:   0.007 TIME LEFT:  2.00D  GRAD.:     0.383 HEAT: 74.40549
 CYCLE:    56 TIME:   0.007 TIME LEFT:  2.00D  GRAD.:     0.516 HEAT: 74.40487
 CYCLE:    57 TIME:   0.007 TIME LEFT:  2.00D  GRAD.:     0.459 HEAT: 74.40444
 CYCLE:    58 TIME:   0.007 TIME LEFT:  2.00D  GRAD.:     0.683 HEAT: 74.40307
 CYCLE:    59 TIME:   0.007 TIME LEFT:  2.00D  GRAD.:     0.545 HEAT: 74.40258
 CYCLE:    60 TIME:   0.007 TIME LEFT:  2.00D  GRAD.:     0.768 HEAT: 74.40067
 CYCLE:    61 TIME:   0.007 TIME LEFT:  2.00D  GRAD.:     0.733 HEAT: 74.39985
 CYCLE:    62 TIME:   0.008 TIME LEFT:  2.00D  GRAD.:     1.200 HEAT: 74.39683
 CYCLE:    63 TIME:   0.007 TIME LEFT:  2.00D  GRAD.:     0.809 HEAT: 74.39532
 CYCLE:    64 TIME:   0.007 TIME LEFT:  2.00D  GRAD.:     0.586 HEAT: 74.39368
 CYCLE:    65 TIME:   0.007 TIME LEFT:  2.00D  GRAD.:     0.479 HEAT: 74.39206
 CYCLE:    66 TIME:   0.007 TIME LEFT:  2.00D  GRAD.:     0.461 HEAT: 74.39135
 CYCLE:    67 TIME:   0.007 TIME LEFT:  2.00D  GRAD.:     0.445 HEAT: 74.39082
 CYCLE:    68 TIME:   0.007 TIME LEFT:  2.00D  GRAD.:     0.379 HEAT: 74.39035
 CYCLE:    69 TIME:   0.007 TIME LEFT:  2.00D  GRAD.:     0.379 HEAT: 74.38991
 CYCLE:    70 TIME:   0.007 TIME LEFT:  2.00D  GRAD.:     0.402 HEAT: 74.38951
 CYCLE:    71 TIME:   0.007 TIME LEFT:  2.00D  GRAD.:     0.450 HEAT: 74.38879
 CYCLE:    72 TIME:   0.007 TIME LEFT:  2.00D  GRAD.:     0.369 HEAT: 74.38840
 CYCLE:    73 TIME:   0.007 TIME LEFT:  2.00D  GRAD.:     0.542 HEAT: 74.38784
 CYCLE:    74 TIME:   0.007 TIME LEFT:  2.00D  GRAD.:     0.379 HEAT: 74.38757
 CYCLE:    75 TIME:   0.007 TIME LEFT:  2.00D  GRAD.:     0.294 HEAT: 74.38708
 CYCLE:    76 TIME:   0.007 TIME LEFT:  2.00D  GRAD.:     0.370 HEAT: 74.38660
 CYCLE:    77 TIME:   0.007 TIME LEFT:  2.00D  GRAD.:     0.470 HEAT: 74.38559
 CYCLE:    78 TIME:   0.007 TIME LEFT:  2.00D  GRAD.:     0.473 HEAT: 74.38498
 CYCLE:    79 TIME:   0.008 TIME LEFT:  2.00D  GRAD.:     0.550 HEAT: 74.38398
 CYCLE:    80 TIME:   0.007 TIME LEFT:  2.00D  GRAD.:     0.454 HEAT: 74.38345
 CYCLE:    81 TIME:   0.007 TIME LEFT:  2.00D  GRAD.:     0.562 HEAT: 74.38263
 CYCLE:    82 TIME:   0.007 TIME LEFT:  2.00D  GRAD.:     0.378 HEAT: 74.38214
 CYCLE:    83 TIME:   0.007 TIME LEFT:  2.00D  GRAD.:     0.270 HEAT: 74.38165
 CYCLE:    84 TIME:   0.007 TIME LEFT:  2.00D  GRAD.:     0.286 HEAT: 74.38137
 CYCLE:    85 TIME:   0.007 TIME LEFT:  2.00D  GRAD.:     0.408 HEAT: 74.38084
 CYCLE:    86 TIME:   0.007 TIME LEFT:  2.00D  GRAD.:     0.370 HEAT: 74.38057
 CYCLE:    87 TIME:   0.008 TIME LEFT:  2.00D  GRAD.:     1.285 HEAT: 74.38107
 CYCLE:    88 TIME:   0.008 TIME LEFT:  2.00D  GRAD.:     0.547 HEAT: 74.37834
 CYCLE:    89 TIME:   0.007 TIME LEFT:  2.00D  GRAD.:     0.367 HEAT: 74.37806
 CYCLE:    90 TIME:   0.007 TIME LEFT:  2.00D  GRAD.:     0.271 HEAT: 74.37773
 CYCLE:    91 TIME:   0.007 TIME LEFT:  2.00D  GRAD.:     0.239 HEAT: 74.37744
 CYCLE:    92 TIME:   0.007 TIME LEFT:  2.00D  GRAD.:     0.188 HEAT: 74.37735
 CYCLE:    93 TIME:   0.007 TIME LEFT:  2.00D  GRAD.:     0.114 HEAT: 74.37730
 CYCLE:    94 TIME:   0.007 TIME LEFT:  2.00D  GRAD.:     0.112 HEAT: 74.37728
 CYCLE:    95 TIME:   0.007 TIME LEFT:  2.00D  GRAD.:     0.111 HEAT: 74.37725
 CYCLE:    96 TIME:   0.007 TIME LEFT:  2.00D  GRAD.:     0.143 HEAT: 74.37720
 CYCLE:    97 TIME:   0.007 TIME LEFT:  2.00D  GRAD.:     0.122 HEAT: 74.37716
 CYCLE:    98 TIME:   0.007 TIME LEFT:  2.00D  GRAD.:     0.131 HEAT: 74.37711
 CYCLE:    99 TIME:   0.006 TIME LEFT:  2.00D  GRAD.:     0.132 HEAT: 74.37708
 CYCLE:   100 TIME:   0.007 TIME LEFT:  2.00D  GRAD.:     0.174 HEAT: 74.37701
 CYCLE:   101 TIME:   0.007 TIME LEFT:  2.00D  GRAD.:     0.130 HEAT: 74.37697
 CYCLE:   102 TIME:   0.007 TIME LEFT:  2.00D  GRAD.:     0.106 HEAT: 74.37693
 CYCLE:   103 TIME:   0.006 TIME LEFT:  2.00D  GRAD.:     0.088 HEAT: 74.37692
 CYCLE:   104 TIME:   0.007 TIME LEFT:  2.00D  GRAD.:     0.084 HEAT: 74.37690
 CYCLE:   105 TIME:   0.007 TIME LEFT:  2.00D  GRAD.:     0.073 HEAT: 74.37690
 CYCLE:   106 TIME:   0.007 TIME LEFT:  2.00D  GRAD.:     0.093 HEAT: 74.37689
 CYCLE:   107 TIME:   0.007 TIME LEFT:  2.00D  GRAD.:     0.067 HEAT: 74.37688
 CYCLE:   108 TIME:   0.007 TIME LEFT:  2.00D  GRAD.:     0.105 HEAT: 74.37686
 CYCLE:   109 TIME:   0.007 TIME LEFT:  2.00D  GRAD.:     0.066 HEAT: 74.37685
 CYCLE:   110 TIME:   0.009 TIME LEFT:  2.00D  GRAD.:     0.065 HEAT: 74.37684
 CYCLE:   111 TIME:   0.008 TIME LEFT:  2.00D  GRAD.:     0.071 HEAT: 74.37683
 CYCLE:   112 TIME:   0.007 TIME LEFT:  2.00D  GRAD.:     0.059 HEAT: 74.37683
 CYCLE:   113 TIME:   0.007 TIME LEFT:  2.00D  GRAD.:     0.119 HEAT: 74.37681
 CYCLE:   114 TIME:   0.007 TIME LEFT:  2.00D  GRAD.:     0.146 HEAT: 74.37678
 CYCLE:   115 TIME:   0.007 TIME LEFT:  2.00D  GRAD.:     0.171 HEAT: 74.37671
 CYCLE:   116 TIME:   0.007 TIME LEFT:  2.00D  GRAD.:     0.188 HEAT: 74.37665
 CYCLE:   117 TIME:   0.007 TIME LEFT:  2.00D  GRAD.:     0.152 HEAT: 74.37652
 CYCLE:   118 TIME:   0.007 TIME LEFT:  2.00D  GRAD.:     0.078 HEAT: 74.37646
 CYCLE:   119 TIME:   0.007 TIME LEFT:  2.00D  GRAD.:     0.039 HEAT: 74.37643

     RMS GRADIENT =  0.03874  IS LESS THAN CUTOFF =  0.05000



 -------------------------------------------------------------------------------
pm3  precise nosym
 InChI=1S/C10H12/c1-3-6-9(2)10-7-4-5-8-10/h4-10H,1H2,2H3



     GEOMETRY OPTIMISED USING EIGENVECTOR FOLLOWING (EF).     
     SCF FIELD WAS ACHIEVED                                   


                              PM3 CALCULATION
                                                       MOPAC2012 (Version: 13.159M)
                                                       Mon Jun  2 11:13:48 2014
                                                       No. of days left =   6




          FINAL HEAT OF FORMATION =         74.37643 KCAL/MOL =     311.19097 KJ/MOL


          TOTAL ENERGY            =      -1367.17103 EV
          ELECTRONIC ENERGY       =      -7276.94231 EV  POINT GROUP:     C1  
          CORE-CORE REPULSION     =       5909.77128 EV
          COSMO AREA              =        189.73 SQUARE ANGSTROMS
          COSMO VOLUME            =        193.04 CUBIC ANGSTROMS

          GRADIENT NORM           =          0.03874
          IONIZATION POTENTIAL    =          9.234687 EV
          HOMO LUMO ENERGIES (EV) =         -9.235  0.293
          NO. OF FILLED LEVELS    =         26
          MOLECULAR WEIGHT        =        132.205

          MOLECULAR DIMENSIONS (Angstroms)

            Atom       Atom       Distance
            H    19    H    22     8.15816
            H    18    H    13     5.45856
            H    11    H    20     2.81235


          SCF CALCULATIONS        =        131
          COMPUTATION TIME        =          0.912 SECONDS




   ATOM   CHEMICAL          X               Y               Z
  NUMBER   SYMBOL      (ANGSTROMS)     (ANGSTROMS)     (ANGSTROMS)
 
     1       C          0.36645524  *  -0.50259145  *   0.39646762  *
     2       C         -0.88543412  *  -0.43757474  *  -0.48590984  *
     3       C          0.48409101  *  -1.85678525  *   1.08307179  *
     4       C         -1.01911956  *   0.87774971  *  -1.21919243  *
     5       C         -2.17360790  *  -0.49351283  *   0.30374595  *
     6       C          1.59151555  *  -0.28278769  *  -0.44144153  *
     7       C         -2.20379749  *   1.45095765  *  -0.91747685  *
     8       C         -2.92325579  *   0.59610152  *   0.03094767  *
     9       C          3.38027548  *   1.51325589  *   0.13025693  *
    10       C          2.48728700  *   0.61786840  *  -0.15218292  *
    11       H          0.29071703  *   0.29433477  *   1.17524352  *
    12       H         -0.87354934  *  -1.27129812  *  -1.22881440  *
    13       H          0.53971711  *  -2.67803138  *   0.35588681  *
    14       H         -0.37734712  *  -2.05149462  *   1.73563095  *
    15       H          1.38715027  *  -1.90552897  *   1.70473941  *
    16       H         -0.23731791  *   1.25392265  *  -1.87611043  *
    17       H         -2.41347015  *  -1.31777881  *   0.97272022  *
    18       H         -2.59966927  *   2.39230084  *  -1.29311941  *
    19       H         -3.90691810  *   0.83954049  *   0.42749110  *
    20       H          1.72105471  *  -0.92777276  *  -1.31955736  *
    21       H          3.32974907  *   2.52633401  *  -0.25930351  *
    22       H          4.23073677  *   1.30296082  *   0.77297185  *

           Empirical Formula: C10 H12  =    22 atoms



      MOLECULAR POINT GROUP   :   C1  


                  EIGENVALUES  
 -41.06493 -35.67283 -31.91516 -27.68540 -26.27047 -26.03987 -21.27091 -19.06874
 -18.75532 -18.21596 -17.63292 -16.35800 -15.52994 -15.13834 -14.54743 -14.33912
 -13.94208 -13.36301 -13.25747 -12.54501 -12.37614 -12.13487 -11.01983 -10.27912
  -9.89080  -9.23469   0.29307   1.01222   1.08203   2.02474   2.93196   3.29305
   3.36640   3.59078   3.62832   3.80466   3.85212   4.06759   4.11400   4.29019
   4.34761   4.40237   4.49052   4.68398   4.80002   4.93638   4.99382   5.17324
   5.77721   5.80617   6.16152   6.48367


              NET ATOMIC CHARGES AND DIPOLE CONTRIBUTIONS

  ATOM NO.   TYPE          CHARGE      No. of ELECS.   s-Pop       p-Pop       
    1          C          -0.002564        4.0026     1.15851     2.84406
    2          C          -0.034190        4.0342     1.16859     2.86560
    3          C          -0.114198        4.1142     1.14235     2.97185
    4          C          -0.154014        4.1540     1.21009     2.94393
    5          C          -0.162352        4.1624     1.20971     2.95264
    6          C          -0.090902        4.0909     1.16524     2.92566
    7          C          -0.122111        4.1221     1.19236     2.92975
    8          C          -0.116066        4.1161     1.19244     2.92362
    9          C          -0.092692        4.0927     1.14680     2.94589
   10          C          -0.176635        4.1766     1.21404     2.96260
   11          H           0.076181        0.9238     0.92382
   12          H           0.091793        0.9082     0.90821
   13          H           0.040149        0.9599     0.95985
   14          H           0.043396        0.9566     0.95660
   15          H           0.044742        0.9553     0.95526
   16          H           0.120525        0.8795     0.87948
   17          H           0.118534        0.8815     0.88147
   18          H           0.114111        0.8859     0.88589
   19          H           0.113502        0.8865     0.88650
   20          H           0.113006        0.8870     0.88699
   21          H           0.095026        0.9050     0.90497
   22          H           0.094761        0.9052     0.90524
 DIPOLE           X         Y         Z       TOTAL
 POINT-CHG.     0.295    -0.245     0.125     0.403
 HYBRID         0.022    -0.035    -0.080     0.090
 SUM            0.316    -0.280     0.045     0.425


          ATOMIC ORBITAL ELECTRON POPULATIONS

    Atom      s        px        py        pz   
    1  C   1.15851   0.90426   0.98034   0.95946
    2  C   1.16859   0.93673   0.96927   0.95960
    3  C   1.14235   1.01393   0.95937   0.99855
    4  C   1.21009   0.97975   0.96379   1.00039
    5  C   1.20971   0.96867   0.98601   0.99796
    6  C   1.16524   0.94886   0.97655   1.00026
    7  C   1.19236   0.96059   0.98341   0.98575
    8  C   1.19244   0.98374   0.95667   0.98321
    9  C   1.14680   0.96818   0.96309   1.01462
   10  C   1.21404   0.98256   0.98404   0.99600
   11  H   0.92382
   12  H   0.90821
   13  H   0.95985
   14  H   0.95660
   15  H   0.95526
   16  H   0.87948
   17  H   0.88147
   18  H   0.88589
   19  H   0.88650
   20  H   0.88699
   21  H   0.90497
   22  H   0.90524
 *******************************************************************************
 ** Site#: 14399           For non-commercial use only        Version 13.159M **
 *******************************************************************************
 ** Cite this work as: MOPAC2012, James J. P. Stewart, Stewart Computational  **
 ** Chemistry, Version 13.159M web: HTTP://OpenMOPAC.net  Days remaining:   6 **
 *******************************************************************************
 **                                                                           **
 **                                MOPAC2012                                  **
 **                                                                           **
 *******************************************************************************

                            PM3 CALCULATION RESULTS


 *******************************************************************************
 *  CALCULATION DONE:                                Mon Jun  2 11:13:48 2014  *
 *  PM3      - The PM3 Hamiltonian to be used
 *  OLDGEO   - PREVIOUS GEOMETRY TO BE USED
 *  PRECISE  - CRITERIA TO BE INCREASED BY 100 TIMES
 *  NOSYM    - POINT-GROUP SYMMETRY SET TO C1
 *  T=       - A TIME OF 172800.0 SECONDS REQUESTED
 *  DUMP=N   - RESTART FILE WRITTEN EVERY  7200.000 SECONDS
 *  THERMO   - THERMODYNAMIC QUANTITIES TO BE CALCULATED
 *******************************************************************************
oldgeo thermo nosym precise  pm3

   ATOM   CHEMICAL          X               Y               Z
  NUMBER   SYMBOL      (ANGSTROMS)     (ANGSTROMS)     (ANGSTROMS)
 
     1       C          0.36645524  *  -0.50259145  *   0.39646762  *
     2       C         -0.88543412  *  -0.43757474  *  -0.48590984  *
     3       C          0.48409101  *  -1.85678525  *   1.08307179  *
     4       C         -1.01911956  *   0.87774971  *  -1.21919243  *
     5       C         -2.17360790  *  -0.49351283  *   0.30374595  *
     6       C          1.59151555  *  -0.28278769  *  -0.44144153  *
     7       C         -2.20379749  *   1.45095765  *  -0.91747685  *
     8       C         -2.92325579  *   0.59610152  *   0.03094767  *
     9       C          3.38027548  *   1.51325589  *   0.13025693  *
    10       C          2.48728700  *   0.61786840  *  -0.15218292  *
    11       H          0.29071703  *   0.29433477  *   1.17524352  *
    12       H         -0.87354934  *  -1.27129812  *  -1.22881440  *
    13       H          0.53971711  *  -2.67803138  *   0.35588681  *
    14       H         -0.37734712  *  -2.05149462  *   1.73563095  *
    15       H          1.38715027  *  -1.90552897  *   1.70473941  *
    16       H         -0.23731791  *   1.25392265  *  -1.87611043  *
    17       H         -2.41347015  *  -1.31777881  *   0.97272022  *
    18       H         -2.59966927  *   2.39230084  *  -1.29311941  *
    19       H         -3.90691810  *   0.83954049  *   0.42749110  *
    20       H          1.72105471  *  -0.92777276  *  -1.31955736  *
    21       H          3.32974907  *   2.52633401  *  -0.25930351  *
    22       H          4.23073677  *   1.30296082  *   0.77297185  *
 


          CARTESIAN COORDINATES 

    NO.       ATOM         X         Y         Z

     1         C        0.3665   -0.5026    0.3965
     2         C       -0.8854   -0.4376   -0.4859
     3         C        0.4841   -1.8568    1.0831
     4         C       -1.0191    0.8777   -1.2192
     5         C       -2.1736   -0.4935    0.3037
     6         C        1.5915   -0.2828   -0.4414
     7         C       -2.2038    1.4510   -0.9175
     8         C       -2.9233    0.5961    0.0309
     9         C        3.3803    1.5133    0.1303
    10         C        2.4873    0.6179   -0.1522
    11         H        0.2907    0.2943    1.1752
    12         H       -0.8735   -1.2713   -1.2288
    13         H        0.5397   -2.6780    0.3559
    14         H       -0.3773   -2.0515    1.7356
    15         H        1.3872   -1.9055    1.7047
    16         H       -0.2373    1.2539   -1.8761
    17         H       -2.4135   -1.3178    0.9727
    18         H       -2.5997    2.3923   -1.2931
    19         H       -3.9069    0.8395    0.4275
    20         H        1.7211   -0.9278   -1.3196
    21         H        3.3297    2.5263   -0.2593
    22         H        4.2307    1.3030    0.7730

  H: (PM3): J. J. P. STEWART, J. COMP. CHEM. 10, 209 (1989).
  C: (PM3): J. J. P. STEWART, J. COMP. CHEM. 10, 209 (1989).

           Empirical Formula: C10 H12  =    22 atoms



      MOLECULAR POINT GROUP   :   C1  


      RHF CALCULATION, NO. OF DOUBLY OCCUPIED LEVELS =   26



          HEAT OF FORMATION =      74.376426 KCALS/MOLE


          INTERNAL COORDINATE DERIVATIVES

   NUMBER  ATOM       BOND         ANGLE      DIHEDRAL

     1       C      0.000980    -0.001989     0.000230
     2       C      0.003273    -0.001637     0.000465
     3       C     -0.002842     0.000815    -0.003386
     4       C     -0.000529     0.002070    -0.006615
     5       C      0.003626     0.004631    -0.003761
     6       C      0.008380     0.001087     0.004489
     7       C     -0.011265    -0.001402     0.006408
     8       C      0.001219    -0.009521    -0.004143
     9       C      0.001842     0.002272     0.001247
    10       C     -0.005466    -0.003620     0.016898
    11       H     -0.004717     0.008188    -0.005095
    12       H     -0.002386     0.005510    -0.002344
    13       H      0.006739    -0.000492     0.002856
    14       H     -0.008883    -0.010916     0.000933
    15       H      0.004610    -0.005075    -0.001495
    16       H      0.003098    -0.000184     0.002201
    17       H      0.000977    -0.001842     0.002143
    18       H      0.000232     0.005223    -0.003180
    19       H     -0.001913     0.000741    -0.004324
    20       H      0.004039     0.003216     0.000454
    21       H     -0.003718     0.009602     0.000816
    22       H      0.002704    -0.006675    -0.004799


          GRADIENT NORM =   0.03995


          TIME FOR SCF CALCULATION =    0.01

          TIME FOR DERIVATIVES     =    0.00

          MOLECULAR WEIGHT =  132.20



          ROTATIONAL CONSTANTS IN CM(-1)

          A =    0.07696039   B =    0.02881488   C =    0.02283972



           PRINCIPAL MOMENTS OF INERTIA IN UNITS OF 10**(-40)*GRAM-CM**2

          A =      363.7296   B =      971.4695   C =     1225.6179


          ORIENTATION OF MOLECULE IN FORCE CALCULATION

    NO.       ATOM         X         Y         Z

     1          C      -0.6750    0.6151   -0.0593
     2          C       0.8580    0.6151   -0.0593
     3          C      -1.2237    2.0357   -0.0593
     4          C       1.4450   -0.7775   -0.1005
     5          C       1.4530    1.1733    1.2136
     6          C      -1.1838   -0.0945   -1.2795
     7          C       2.2631   -0.9602    0.9580
     8          C       2.2685    0.2556    1.7763
     9          C      -2.8975   -2.0441   -1.1580
    10          C      -2.0437   -1.0712   -1.2159
    11          H      -1.0276    0.0894    0.8607
    12          H       1.2405    1.1996   -0.9307
    13          H      -0.8854    2.6024   -0.9373
    14          H      -0.9041    2.5888    0.8338
    15          H      -2.3211    2.0336   -0.0715
    16          H       1.2006   -1.4832   -0.8920
    17          H       1.2289    2.1759    1.5727
    18          H       2.8425   -1.8481    1.2026
    19          H       2.8538    0.3599    2.6877
    20          H      -0.8115    0.2505   -2.2523
    21          H      -2.5890   -3.0831   -1.0816
    22          H      -3.9709   -1.8771   -1.1821


    FIRST DERIVATIVES WILL BE USED IN THE CALCULATION OF SECOND DERIVATIVES

          ESTIMATED TIME TO COMPLETE CALCULATION =        2.79 SECONDS

    FOR POINT-GROUP C1   THERE ARE   1 UNIQUE SYMMETRY FUNCTIONS.

 STEP:   1 TIME =     0.03 SECS, INTEGRAL =      0.03 TIME LEFT: 172799.96
 STEP:   2 TIME =     0.03 SECS, INTEGRAL =      0.06 TIME LEFT: 172799.92
 STEP:   3 TIME =     0.03 SECS, INTEGRAL =      0.10 TIME LEFT: 172799.89
 STEP:   4 TIME =     0.04 SECS, INTEGRAL =      0.13 TIME LEFT: 172799.86
 STEP:   5 TIME =     0.03 SECS, INTEGRAL =      0.17 TIME LEFT: 172799.82
 STEP:   6 TIME =     0.03 SECS, INTEGRAL =      0.20 TIME LEFT: 172799.79
 STEP:   7 TIME =     0.03 SECS, INTEGRAL =      0.23 TIME LEFT: 172799.76
 STEP:   8 TIME =     0.03 SECS, INTEGRAL =      0.26 TIME LEFT: 172799.73
 STEP:   9 TIME =     0.04 SECS, INTEGRAL =      0.30 TIME LEFT: 172799.69
 STEP:  10 TIME =     0.03 SECS, INTEGRAL =      0.33 TIME LEFT: 172799.66
 STEP:  11 TIME =     0.03 SECS, INTEGRAL =      0.36 TIME LEFT: 172799.63
 STEP:  12 TIME =     0.03 SECS, INTEGRAL =      0.39 TIME LEFT: 172799.60
 STEP:  13 TIME =     0.03 SECS, INTEGRAL =      0.43 TIME LEFT: 172799.56
 STEP:  14 TIME =     0.03 SECS, INTEGRAL =      0.46 TIME LEFT: 172799.53
 STEP:  15 TIME =     0.03 SECS, INTEGRAL =      0.49 TIME LEFT: 172799.50
 STEP:  16 TIME =     0.03 SECS, INTEGRAL =      0.52 TIME LEFT: 172799.47
 STEP:  17 TIME =     0.03 SECS, INTEGRAL =      0.55 TIME LEFT: 172799.44
 STEP:  18 TIME =     0.03 SECS, INTEGRAL =      0.59 TIME LEFT: 172799.40
 STEP:  19 TIME =     0.03 SECS, INTEGRAL =      0.62 TIME LEFT: 172799.37
 STEP:  20 TIME =     0.03 SECS, INTEGRAL =      0.65 TIME LEFT: 172799.34
 STEP:  21 TIME =     0.03 SECS, INTEGRAL =      0.68 TIME LEFT: 172799.31
 STEP:  22 TIME =     0.03 SECS, INTEGRAL =      0.71 TIME LEFT: 172799.28
 STEP:  23 TIME =     0.03 SECS, INTEGRAL =      0.75 TIME LEFT: 172799.24
 STEP:  24 TIME =     0.03 SECS, INTEGRAL =      0.78 TIME LEFT: 172799.21
 STEP:  25 TIME =     0.03 SECS, INTEGRAL =      0.81 TIME LEFT: 172799.18
 STEP:  26 TIME =     0.03 SECS, INTEGRAL =      0.84 TIME LEFT: 172799.15
 STEP:  27 TIME =     0.03 SECS, INTEGRAL =      0.88 TIME LEFT: 172799.11
 STEP:  28 TIME =     0.03 SECS, INTEGRAL =      0.91 TIME LEFT: 172799.08
 STEP:  29 TIME =     0.03 SECS, INTEGRAL =      0.94 TIME LEFT: 172799.05
 STEP:  30 TIME =     0.03 SECS, INTEGRAL =      0.98 TIME LEFT: 172799.01
 STEP:  31 TIME =     0.03 SECS, INTEGRAL =      1.01 TIME LEFT: 172798.98
 STEP:  32 TIME =     0.03 SECS, INTEGRAL =      1.04 TIME LEFT: 172798.95
 STEP:  33 TIME =     0.03 SECS, INTEGRAL =      1.07 TIME LEFT: 172798.92
 STEP:  34 TIME =     0.03 SECS, INTEGRAL =      1.10 TIME LEFT: 172798.89
 STEP:  35 TIME =     0.03 SECS, INTEGRAL =      1.14 TIME LEFT: 172798.85
 STEP:  36 TIME =     0.03 SECS, INTEGRAL =      1.17 TIME LEFT: 172798.82
 STEP:  37 TIME =     0.03 SECS, INTEGRAL =      1.20 TIME LEFT: 172798.79
 STEP:  38 TIME =     0.03 SECS, INTEGRAL =      1.23 TIME LEFT: 172798.76
 STEP:  39 TIME =     0.03 SECS, INTEGRAL =      1.26 TIME LEFT: 172798.73
 STEP:  40 TIME =     0.03 SECS, INTEGRAL =      1.30 TIME LEFT: 172798.69
 STEP:  41 TIME =     0.03 SECS, INTEGRAL =      1.33 TIME LEFT: 172798.66
 STEP:  42 TIME =     0.03 SECS, INTEGRAL =      1.36 TIME LEFT: 172798.63
 STEP:  43 TIME =     0.03 SECS, INTEGRAL =      1.39 TIME LEFT: 172798.60
 STEP:  44 TIME =     0.03 SECS, INTEGRAL =      1.42 TIME LEFT: 172798.57
 STEP:  45 TIME =     0.04 SECS, INTEGRAL =      1.46 TIME LEFT: 172798.53
 STEP:  46 TIME =     0.03 SECS, INTEGRAL =      1.49 TIME LEFT: 172798.50
 STEP:  47 TIME =     0.03 SECS, INTEGRAL =      1.52 TIME LEFT: 172798.47
 STEP:  48 TIME =     0.03 SECS, INTEGRAL =      1.55 TIME LEFT: 172798.44
 STEP:  49 TIME =     0.03 SECS, INTEGRAL =      1.59 TIME LEFT: 172798.40
 STEP:  50 TIME =     0.03 SECS, INTEGRAL =      1.62 TIME LEFT: 172798.37
 STEP:  51 TIME =     0.03 SECS, INTEGRAL =      1.65 TIME LEFT: 172798.34
 STEP:  52 TIME =     0.03 SECS, INTEGRAL =      1.68 TIME LEFT: 172798.31
 STEP:  53 TIME =     0.03 SECS, INTEGRAL =      1.71 TIME LEFT: 172798.28
 STEP:  54 TIME =     0.03 SECS, INTEGRAL =      1.75 TIME LEFT: 172798.24
 STEP:  55 TIME =     0.03 SECS, INTEGRAL =      1.78 TIME LEFT: 172798.21
 STEP:  56 TIME =     0.03 SECS, INTEGRAL =      1.81 TIME LEFT: 172798.18
 STEP:  57 TIME =     0.03 SECS, INTEGRAL =      1.84 TIME LEFT: 172798.15
 STEP:  58 TIME =     0.03 SECS, INTEGRAL =      1.88 TIME LEFT: 172798.11
 STEP:  59 TIME =     0.03 SECS, INTEGRAL =      1.91 TIME LEFT: 172798.08
 STEP:  60 TIME =     0.03 SECS, INTEGRAL =      1.94 TIME LEFT: 172798.05
 STEP:  61 TIME =     0.03 SECS, INTEGRAL =      1.98 TIME LEFT: 172798.01
 STEP:  62 TIME =     0.03 SECS, INTEGRAL =      2.00 TIME LEFT: 172797.98
 STEP:  63 TIME =     0.04 SECS, INTEGRAL =      2.04 TIME LEFT: 172797.95
 STEP:  64 TIME =     0.03 SECS, INTEGRAL =      2.07 TIME LEFT: 172797.92
 STEP:  65 TIME =     0.03 SECS, INTEGRAL =      2.10 TIME LEFT: 172797.89
 STEP:  66 TIME =     0.04 SECS, INTEGRAL =      2.14 TIME LEFT: 172797.85

(To convert to Hartree/Bohr^2, multiply by (10^(-21) x N x a0^2)/(4.184 x 627.51) = 0.0642)


           FORCE MATRIX IN MILLIDYNES/ANGSTROM


                  C  1       C  2       C  3       C  4       C  5       C  6
 ------------------------------------------------------------------------------
     C    1  14.480632
     C    2   3.668153  14.759615
     C    3   4.083599   0.632552  14.309265
     C    4   0.577914   4.109050   0.048369  17.919606
     C    5   0.571365   4.096133   0.054566   1.100057  17.886574
     C    6   4.483234   0.678605   0.732385   0.060650   0.048263  18.286989
     C    7   0.048160   1.198676   0.009066   9.800863   1.572695   0.011302
     C    8   0.048026   1.203225   0.009902   1.579086   9.794977   0.009713
     C    9   0.068309   0.012106   0.011436   0.001461   0.002974   0.778123
     C   10   0.892147   0.037227   0.035680   0.013240   0.010092  11.500820
     H   11   4.256384   0.422585   0.417893   0.014123   0.019692   0.437035
     H   12   0.450675   4.210743   0.025024   0.386349   0.387151   0.022145
     H   13   0.468209   0.021527   4.718638   0.001097   0.003898   0.023591
     H   14   0.456381   0.020045   4.722023   0.001618   0.020709   0.049073
     H   15   0.451429   0.050615   4.760584   0.008693   0.004522   0.027355
     H   16   0.013206   0.406650   0.002507   5.065751   0.042291   0.010944
     H   17   0.010454   0.402453   0.016645   0.042707   5.054081   0.003172
     H   18   0.015748   0.112710   0.002606   0.446472   0.049097   0.001319
     H   19   0.015536   0.112136   0.000805   0.049634   0.446344   0.002537
     H   20   0.444644   0.019345   0.012765   0.006547   0.002896   4.738586
     H   21   0.076166   0.009233   0.010591   0.001581   0.001734   0.047881
     H   22   0.076310   0.008971   0.010660   0.001672   0.001457   0.046977


                  C  7       C  8       C  9       C 10       H 11       H 12
 ------------------------------------------------------------------------------
     C    7  18.332989
     C    8   5.165811  18.330806
     C    9   0.002241   0.002043  18.156431
     C   10   0.002901   0.003801  11.871267  24.896108
     H   11   0.005072   0.005386   0.004557   0.047507   4.718342
     H   12   0.051287   0.051363   0.001080   0.002484   0.040654   4.696327
     H   13   0.000533   0.001399   0.000750   0.002601   0.044431   0.019717
     H   14   0.000690   0.001232   0.002157   0.005093   0.029410   0.001961
     H   15   0.001926   0.001627   0.001032   0.004599   0.028538   0.002335
     H   16   0.441780   0.100111   0.001275   0.006848   0.002199   0.011216
     H   17   0.099846   0.442754   0.000591   0.001482   0.002389   0.010952
     H   18   5.072256   0.419219   0.000905   0.001268   0.000618   0.014359
     H   19   0.419493   5.070276   0.000665   0.001052   0.000697   0.014025
     H   20   0.002953   0.000741   0.042944   0.444614   0.035635   0.013878
     H   21   0.001034   0.000914   5.028433   0.478355   0.000615   0.000195
     H   22   0.001083   0.000745   5.029405   0.478388   0.000885   0.000413


                  H 13       H 14       H 15       H 16       H 17       H 18
 ------------------------------------------------------------------------------
     H   13   5.460790
     H   14   0.567792   5.456199
     H   15   0.570954   0.567849   5.492355
     H   16   0.000594   0.000753   0.000603   5.463549
     H   17   0.000805   0.019546   0.001227   0.010270   5.452034
     H   18   0.000186   0.000193   0.000578   0.041285   0.005256   5.463010
     H   19   0.000239   0.000455   0.000158   0.005314   0.041407   0.009475
     H   20   0.009370   0.001934   0.002799   0.003119   0.001071   0.000498
     H   21   0.000252   0.001827   0.000297   0.000862   0.000281   0.000335
     H   22   0.000222   0.001774   0.000485   0.000540   0.000197   0.000249


                  H 19       H 20       H 21       H 22
 ------------------------------------------------------
     H   19   5.460512
     H   20   0.000448   5.123613
     H   21   0.000327   0.067954   5.405102
     H   22   0.000185   0.068030   0.405846   5.406212


          HEAT OF FORMATION =      74.376426 KCALS/MOLE

          ZERO POINT ENERGY     116.746 KCAL/MOL


           NORMAL COORDINATE ANALYSIS (Total motion = 1 Angstrom)


   Root No.       1         2         3         4         5         6         7         8

                 1 A       2 A       3 A       4 A       5 A       6 A       7 A       8 A   

                  44.2      71.6     143.5     179.0     194.7     204.2     315.4     360.9
  
           1   -0.0076   -0.0052    0.0188    0.0096   -0.0022    0.0116   -0.0148    0.0036
           2    0.0304   -0.0024   -0.0111    0.0059   -0.0067   -0.0011    0.0001    0.0056
           3   -0.0030    0.0074   -0.0169    0.0139   -0.0106    0.0059    0.0046    0.0014
           4   -0.0075   -0.0050    0.0189    0.0110   -0.0023    0.0137   -0.0200    0.0037
           5    0.0089   -0.0192    0.0081    0.0193   -0.0169    0.0013   -0.0063   -0.0041
           6   -0.0001   -0.0093   -0.0302   -0.0080   -0.0021   -0.0199   -0.0036   -0.0023
           7    0.0130    0.0070   -0.0087   -0.0073    0.0232    0.0392    0.0404   -0.0183
           8    0.0382    0.0021   -0.0230   -0.0012    0.0040    0.0111    0.0206   -0.0004
           9   -0.0165    0.0366    0.0349    0.0007    0.0026    0.0053    0.0331   -0.0144
          10   -0.0253   -0.0240    0.0147   -0.0059    0.0210    0.0315   -0.0193    0.0058
          11    0.0018   -0.0286    0.0053    0.0119   -0.0068    0.0096   -0.0034   -0.0051
          12   -0.0144    0.0302   -0.0174   -0.0097    0.0024   -0.0188   -0.0064    0.0031
          13   -0.0034    0.0197   -0.0004    0.0220   -0.0242   -0.0074   -0.0292    0.0017
          14   -0.0131    0.0161    0.0086    0.0129   -0.0100    0.0048    0.0020   -0.0037
          15    0.0076   -0.0366   -0.0211   -0.0103    0.0062   -0.0106   -0.0068   -0.0014
          16   -0.0127   -0.0193    0.0112    0.0100   -0.0222   -0.0289    0.0253   -0.0220
          17    0.0248    0.0222    0.0074   -0.0158    0.0147   -0.0050   -0.0196    0.0240
          18    0.0025   -0.0012   -0.0246    0.0271   -0.0144    0.0275    0.0005    0.0029
          19   -0.0296   -0.0124   -0.0299   -0.0281    0.0243    0.0013   -0.0055    0.0061
          20   -0.0204   -0.0034   -0.0068   -0.0084    0.0102    0.0073    0.0109   -0.0023
          21   -0.0149    0.0256    0.0147    0.0034    0.0035    0.0045   -0.0152    0.0039
          22   -0.0161    0.0156   -0.0396   -0.0076   -0.0094   -0.0291   -0.0161   -0.0006
          23   -0.0297    0.0248   -0.0051   -0.0065    0.0059    0.0013    0.0108   -0.0026
          24   -0.0012   -0.0166    0.0125    0.0008    0.0098    0.0139   -0.0138    0.0040
          25    0.0610    0.0209    0.0091   -0.0054    0.0008   -0.0145   -0.0061   -0.0138
          26   -0.0385   -0.0146    0.0132   -0.0055   -0.0046   -0.0224    0.0082    0.0174
          27    0.0270   -0.0271    0.0400   -0.0288    0.0079   -0.0280    0.0029   -0.0032
          28    0.0224   -0.0008    0.0101    0.0045   -0.0151   -0.0247    0.0414    0.0627
          29   -0.0054    0.0052    0.0092   -0.0113    0.0084   -0.0094   -0.0340   -0.0493
          30    0.0142   -0.0128   -0.0082    0.0178   -0.0096    0.0268   -0.0039    0.0124
          31   -0.0169   -0.0015    0.0401    0.0278   -0.0074    0.0253   -0.0284    0.0089
          32    0.0437   -0.0147   -0.0418    0.0139   -0.0088    0.0110    0.0012    0.0084
          33    0.0011    0.0017   -0.0253    0.0252   -0.0138    0.0178    0.0001    0.0049
          34    0.0021   -0.0087    0.0129   -0.0016    0.0031    0.0034   -0.0212    0.0049
          35    0.0130   -0.0525    0.0094    0.0201   -0.0142    0.0057   -0.0086   -0.0084
          36    0.0069   -0.0333   -0.0304   -0.0120    0.0019   -0.0208   -0.0065   -0.0043
          37    0.0221    0.0099   -0.0260   -0.1181   -0.0870    0.1196    0.0550   -0.0256
          38    0.0258    0.0163    0.0137   -0.0458   -0.0417    0.0300    0.0235   -0.0049
          39   -0.0210    0.0469    0.0521   -0.0707   -0.0693    0.0482    0.0406   -0.0203
          40    0.0202    0.0133   -0.0143    0.0923    0.1567   -0.0182    0.0811   -0.0348
          41    0.0413   -0.0178   -0.0472    0.0520    0.0390   -0.0218   -0.0123    0.0173
          42   -0.0210    0.0467    0.0520   -0.0678   -0.0662    0.0463    0.0403   -0.0202
          43    0.0130    0.0069   -0.0088   -0.0086    0.0217    0.0403    0.0410   -0.0187
          44    0.0541    0.0113   -0.0453   -0.0157    0.0241    0.0361    0.0736   -0.0226
          45   -0.0176    0.0391    0.0425    0.1312    0.1548   -0.0799    0.0510   -0.0206
          46   -0.0331   -0.0436    0.0390   -0.0079    0.0399    0.0654   -0.0255    0.0090
          47    0.0137   -0.0522    0.0105    0.0197   -0.0117    0.0155   -0.0079   -0.0076
          48   -0.0226    0.0573   -0.0294   -0.0161    0.0012   -0.0342   -0.0006    0.0045
          49    0.0081    0.0382    0.0108    0.0480   -0.0503   -0.0136   -0.0451   -0.0007
          50   -0.0144    0.0313    0.0167    0.0214   -0.0169    0.0061   -0.0024   -0.0038
          51    0.0185   -0.0675   -0.0365   -0.0179    0.0104   -0.0180   -0.0036   -0.0029
          52   -0.0411   -0.0207   -0.0525   -0.0538    0.0463    0.0015    0.0097    0.0096
          53   -0.0303   -0.0026   -0.0153   -0.0226    0.0239    0.0100    0.0198    0.0001
          54   -0.0239    0.0482    0.0375    0.0128    0.0015    0.0139   -0.0197    0.0046
          55   -0.0167    0.0294   -0.0703   -0.0135   -0.0207   -0.0603   -0.0141   -0.0070
          56   -0.0476    0.0485   -0.0127   -0.0186    0.0147   -0.0036    0.0160   -0.0017
          57    0.0013   -0.0281    0.0331    0.0060    0.0160    0.0344   -0.0159    0.0080
          58   -0.0441   -0.0429    0.0015    0.0212   -0.0467   -0.0589    0.0644   -0.1542
          59    0.0441    0.0538    0.0149   -0.0331    0.0364    0.0005   -0.0451    0.1366
          60   -0.0026    0.0009   -0.0249    0.0245   -0.0159    0.0174    0.0065   -0.0077
          61    0.1034    0.0450    0.0084   -0.0179    0.0205   -0.0020   -0.0764   -0.1403
          62   -0.0268   -0.0099    0.0137   -0.0095   -0.0003   -0.0224   -0.0074   -0.0297
          63    0.0153   -0.0600    0.0491   -0.0330   -0.0126   -0.0765    0.0660   -0.1576
          64    0.0540    0.0169    0.0089   -0.0031   -0.0028   -0.0165    0.0052    0.0039
          65   -0.0804   -0.0378    0.0164    0.0046   -0.0224   -0.0356    0.0762    0.1596
          66    0.0503   -0.0068    0.0729   -0.0656    0.0441   -0.0275   -0.0552    0.1342


   Root No.       9        10        11        12        13        14        15        16

                 9 A      10 A      11 A      12 A      13 A      14 A      15 A      16 A   

                 372.5     435.3     473.5     509.5     595.7     606.0     752.6     811.2
  
           1    0.0006   -0.0145   -0.0337   -0.0089   -0.0237    0.0149    0.0266   -0.0004
           2   -0.0172   -0.0393    0.0143    0.0027   -0.0247   -0.0104    0.0101   -0.0009
           3   -0.0214    0.0573    0.0056    0.0029   -0.0182    0.0091   -0.0066    0.0000
           4    0.0029   -0.0187   -0.0148   -0.0063   -0.0299    0.0173    0.0066    0.0001
           5    0.0300   -0.0063   -0.0095   -0.0127   -0.0116    0.0095   -0.0163    0.0062
           6    0.0189    0.0120    0.0104   -0.0026    0.0250   -0.0109    0.0235    0.0010
           7    0.0313    0.0229   -0.0178   -0.0066    0.0083    0.0088    0.0051   -0.0010
           8   -0.0084   -0.0276    0.0289    0.0078   -0.0241   -0.0238   -0.0009    0.0026
           9    0.0057   -0.0221    0.0053   -0.0001   -0.0064   -0.0075   -0.0003   -0.0004
          10   -0.0121    0.0017    0.0341    0.0432    0.0023   -0.0089   -0.0128    0.0324
          11    0.0313    0.0081    0.0066    0.0041    0.0085    0.0013   -0.0224    0.0096
          12    0.0024   -0.0164   -0.0030   -0.0234   -0.0039    0.0034   -0.0096   -0.0101
          13    0.0204    0.0024    0.0404   -0.0303    0.0162   -0.0021   -0.0129   -0.0342
          14    0.0135    0.0131    0.0016   -0.0189    0.0092    0.0005    0.0169   -0.0098
          15    0.0266   -0.0110   -0.0172    0.0075   -0.0036    0.0072    0.0179    0.0119
          16   -0.0183    0.0098   -0.0179   -0.0037   -0.0023   -0.0389   -0.0023    0.0002
          17   -0.0129    0.0091    0.0019    0.0084    0.0166    0.0340    0.0005    0.0001
          18   -0.0261    0.0212   -0.0042    0.0031   -0.0407    0.0055    0.0097    0.0038
          19   -0.0236   -0.0146    0.0138   -0.0335   -0.0033    0.0011   -0.0192    0.0295
          20    0.0007    0.0035   -0.0081   -0.0214    0.0019    0.0046    0.0002   -0.0058
          21    0.0050   -0.0058    0.0124    0.0331   -0.0012   -0.0042   -0.0048   -0.0090
          22    0.0258   -0.0123   -0.0019    0.0345   -0.0057    0.0027   -0.0186   -0.0285
          23    0.0019    0.0047   -0.0153    0.0184   -0.0042    0.0013    0.0048   -0.0118
          24    0.0024   -0.0054    0.0201   -0.0272    0.0079    0.0012   -0.0013   -0.0005
          25   -0.0186    0.0117   -0.0097    0.0040    0.0145    0.0022   -0.0032    0.0004
          26   -0.0181    0.0141   -0.0104    0.0042    0.0147   -0.0018   -0.0037    0.0007
          27    0.0056    0.0097    0.0076   -0.0010   -0.0096    0.0013    0.0002    0.0000
          28   -0.0127    0.0035    0.0028    0.0072    0.0133    0.0117   -0.0020    0.0002
          29   -0.0224    0.0162   -0.0215    0.0008    0.0149   -0.0106   -0.0031    0.0004
          30   -0.0260   -0.0334   -0.0395    0.0091    0.0796   -0.0080   -0.0109   -0.0010
          31   -0.0041   -0.0233   -0.0536   -0.0148   -0.0654    0.0476    0.0317    0.0019
          32   -0.0319   -0.0302    0.0252    0.0072   -0.0534   -0.0251    0.0195    0.0025
          33   -0.0316    0.0562    0.0026    0.0031   -0.0495    0.0128    0.0021    0.0027
          34    0.0061   -0.0653   -0.0405   -0.0131   -0.0460    0.0215    0.0646   -0.0004
          35    0.0524    0.0037   -0.0132    0.0251   -0.0044    0.0101   -0.0279    0.0617
          36    0.0352   -0.0028   -0.0044    0.0194    0.0206   -0.0073    0.0405    0.0380
          37    0.0430    0.0663   -0.0104   -0.0063    0.0240    0.0121   -0.0275   -0.0015
          38   -0.0004   -0.0970    0.0269    0.0054   -0.0296   -0.0448    0.0231    0.0047
          39    0.0151   -0.0523    0.0070   -0.0015   -0.0046   -0.0209    0.0038    0.0007
          40    0.0573    0.0200   -0.0081   -0.0086    0.0353   -0.0098   -0.0203    0.0002
          41   -0.0370    0.0201    0.0221    0.0113   -0.0445    0.0044    0.0047   -0.0003
          42    0.0149   -0.0518    0.0061   -0.0016   -0.0035   -0.0195    0.0049    0.0007
          43    0.0318    0.0237   -0.0179   -0.0068    0.0086    0.0087    0.0043   -0.0010
          44    0.0273    0.0098    0.0482    0.0079    0.0136   -0.0407   -0.0571    0.0039
          45    0.0151   -0.0541    0.0064   -0.0016   -0.0005   -0.0232    0.0055    0.0002
          46   -0.0309    0.0226    0.0949    0.1202    0.0461   -0.0515    0.0842   -0.1866
          47    0.0436    0.0224    0.0244    0.0260    0.0315   -0.0146    0.0318   -0.0772
          48   -0.0032   -0.0356   -0.0373   -0.0662   -0.0379    0.0306   -0.0880    0.1349
          49    0.0464    0.0244    0.1073   -0.0762    0.0952   -0.0328    0.0841    0.1927
          50    0.0155    0.0248    0.0305   -0.0361    0.0435   -0.0143    0.0680    0.0914
          51    0.0370   -0.0301   -0.0567    0.0274   -0.0505    0.0295   -0.0641   -0.1298
          52   -0.0620   -0.0168    0.0280   -0.1246    0.0244   -0.0111    0.0992   -0.0792
          53   -0.0240    0.0029   -0.0024   -0.0602    0.0129   -0.0022    0.0609   -0.0519
          54    0.0060   -0.0034    0.0006    0.1087   -0.0274    0.0000   -0.0650    0.0821
          55    0.0610   -0.0107   -0.0236    0.1283    0.0088   -0.0114    0.1001    0.0858
          56   -0.0076    0.0022   -0.0197    0.0758   -0.0049   -0.0110    0.0363    0.0618
          57   -0.0189   -0.0063    0.0347   -0.0942   -0.0013    0.0118   -0.0813   -0.0828
          58   -0.0511    0.0201    0.0218    0.0064   -0.0334   -0.0500   -0.0214    0.0001
          59    0.0126    0.0721   -0.0052    0.0001   -0.0158    0.0578    0.0133    0.0050
          60   -0.0293    0.0470    0.0080    0.0042   -0.0616    0.0094    0.0065    0.0054
          61   -0.0273    0.0275   -0.0355   -0.0054    0.0069   -0.0391   -0.0057    0.0019
          62   -0.0229    0.0166   -0.0103    0.0041    0.0130    0.0019   -0.0025    0.0013
          63   -0.0242   -0.0213    0.1121    0.0321   -0.0101    0.2103    0.0276    0.0014
          64   -0.0187    0.0092   -0.0060    0.0061    0.0184    0.0101   -0.0035    0.0003
          65   -0.0077    0.0062    0.0084    0.0119    0.0226    0.0245   -0.0053   -0.0003
          66    0.0659    0.0823   -0.0493   -0.0459   -0.1163   -0.1983   -0.0061   -0.0002


   Root No.      17        18        19        20        21        22        23        24

                17 A      18 A      19 A      20 A      21 A      22 A      23 A      24 A   

                 823.9     825.3     882.5     933.9     944.2     957.1     967.2     979.9
  
           1   -0.0031   -0.0073   -0.0009   -0.0121   -0.0070    0.0136   -0.0009    0.0014
           2    0.0000   -0.0038    0.0019   -0.0067   -0.0061    0.0010   -0.0003   -0.0027
           3    0.0004    0.0022    0.0024    0.0093   -0.0010    0.0165    0.0002    0.0004
           4   -0.0034   -0.0062    0.0073    0.0214    0.0078   -0.0042    0.0065    0.0004
           5   -0.0332    0.0375    0.0012    0.0074    0.0032   -0.0043    0.0068    0.0044
           6   -0.0410   -0.0437    0.0004   -0.0105   -0.0047    0.0076   -0.0090    0.0049
           7   -0.0012    0.0014    0.0037   -0.0214   -0.0159    0.0144   -0.0151    0.0014
           8    0.0001   -0.0077   -0.0082    0.0094    0.0033    0.0233    0.0020    0.0041
           9   -0.0004   -0.0003    0.0043    0.0124   -0.0062    0.0302    0.0093    0.0009
          10   -0.0244   -0.0133    0.0013    0.0092    0.0059    0.0000   -0.0217    0.0140
          11    0.0007    0.0360   -0.0055   -0.0203   -0.0093    0.0104   -0.0095   -0.0079
          12   -0.0471    0.0457   -0.0014   -0.0138   -0.0079    0.0017    0.0150   -0.0157
          13    0.0160   -0.0167    0.0002    0.0094    0.0061    0.0001   -0.0212   -0.0143
          14   -0.0710   -0.0393    0.0087    0.0169    0.0073   -0.0061   -0.0125   -0.0188
          15    0.0072   -0.0200    0.0061    0.0115    0.0035   -0.0094    0.0125   -0.0038
          16   -0.0012   -0.0006   -0.0439   -0.0010    0.0223    0.0169    0.0048   -0.0002
          17    0.0011    0.0008    0.0383    0.0020   -0.0201   -0.0103   -0.0040    0.0008
          18    0.0050    0.0057   -0.0065   -0.0157    0.0055   -0.0338   -0.0017   -0.0003
          19   -0.0428    0.0046    0.0001   -0.0107   -0.0067    0.0011    0.0151   -0.0315
          20    0.0877   -0.0226   -0.0025   -0.0006   -0.0002   -0.0021    0.0085   -0.0159
          21   -0.0099    0.0274   -0.0012    0.0029    0.0027   -0.0001   -0.0104    0.0250
          22    0.0445   -0.0047   -0.0034   -0.0105   -0.0049   -0.0020    0.0158    0.0319
          23    0.0130   -0.0210    0.0003   -0.0021   -0.0012   -0.0010    0.0065    0.0176
          24    0.0952    0.0067   -0.0035    0.0040    0.0028    0.0047   -0.0106   -0.0233
          25    0.0035    0.0034    0.0232   -0.0130    0.0313   -0.0009    0.0017   -0.0011
          26    0.0025    0.0034   -0.0217    0.0068   -0.0242   -0.0171   -0.0023   -0.0007
          27    0.0000   -0.0001    0.0017    0.0017    0.0027    0.0041    0.0005    0.0033
          28    0.0022    0.0021   -0.0071    0.0090   -0.0318   -0.0139   -0.0030   -0.0002
          29    0.0014    0.0019    0.0055   -0.0097    0.0292    0.0047    0.0023   -0.0006
          30   -0.0007    0.0000    0.0002    0.0054   -0.0018    0.0036    0.0002   -0.0004
          31    0.0112    0.0413    0.0185    0.0183   -0.0070    0.0035    0.0557    0.0004
          32    0.0106   -0.0183   -0.0248   -0.0543    0.0017   -0.0417   -0.0405   -0.0078
          33    0.0119    0.0120   -0.0056   -0.0088    0.0029   -0.0134   -0.0021   -0.0030
          34   -0.0104   -0.0243    0.0272    0.0322    0.0024   -0.0309    0.0742    0.0022
          35    0.0031    0.0343   -0.0004    0.0059    0.0068   -0.0085   -0.0067    0.1924
          36   -0.0198   -0.0539    0.0083   -0.0046   -0.0037   -0.0078    0.0124    0.1317
          37   -0.0038    0.0274    0.0131    0.0613    0.0185   -0.0046    0.0522   -0.0044
          38    0.0013   -0.0290   -0.0446   -0.0862    0.0129   -0.0762   -0.0720    0.0036
          39   -0.0004   -0.0052   -0.0163   -0.0210    0.0131   -0.0441   -0.0152   -0.0021
          40   -0.0047    0.0186   -0.0139    0.0099    0.0421   -0.1094    0.0144   -0.0082
          41    0.0011   -0.0099    0.0284    0.0521   -0.0507    0.2059    0.0288    0.0142
          42    0.0000   -0.0052   -0.0137   -0.0259    0.0086   -0.0434   -0.0184   -0.0022
          43   -0.0015    0.0024    0.0037   -0.0194   -0.0148    0.0134   -0.0131    0.0013
          44   -0.0057    0.0285   -0.0196    0.1229    0.0932   -0.0967    0.0914   -0.0055
          45   -0.0015   -0.0075   -0.0166   -0.0249    0.0120   -0.0463   -0.0178   -0.0031
          46   -0.0134    0.0627    0.0005   -0.0180   -0.0148   -0.0279    0.1054   -0.0559
          47   -0.0922    0.0677   -0.0066   -0.0585   -0.0319    0.0248    0.0366   -0.0461
          48    0.0311   -0.0048    0.0000    0.0283    0.0184   -0.0026   -0.0650    0.0402
          49    0.0400    0.0414    0.0046   -0.0191   -0.0139   -0.0333    0.0998    0.0439
          50   -0.0208   -0.0249    0.0085   -0.0052   -0.0077   -0.0075    0.0416    0.0186
          51   -0.1226   -0.0257    0.0100    0.0562    0.0334   -0.0274   -0.0639   -0.0712
          52   -0.0637    0.1421    0.0084    0.0650    0.0372   -0.0094   -0.0759    0.1531
          53    0.0633    0.0257    0.0043    0.0470    0.0267   -0.0138   -0.0336    0.0801
          54   -0.0558   -0.1220    0.0046   -0.0018   -0.0031   -0.0192    0.0522   -0.0620
          55    0.1271    0.1089    0.0054    0.0672    0.0333    0.0073   -0.0759   -0.1566
          56    0.0248    0.0963   -0.0082   -0.0113   -0.0037    0.0296   -0.0315   -0.0171
          57    0.0425   -0.0799   -0.0081   -0.0443   -0.0212   -0.0051    0.0526    0.1012
          58    0.0326    0.0165    0.2443    0.0131   -0.0817   -0.0517   -0.0145    0.0063
          59   -0.0217   -0.0045   -0.2182   -0.0078    0.0836    0.0197    0.0118    0.0075
          60    0.0096    0.0102    0.0130   -0.0135    0.0025   -0.0492   -0.0034    0.0047
          61    0.0011    0.0039   -0.1239    0.0475   -0.1428   -0.0598   -0.0112   -0.0017
          62    0.0010    0.0034   -0.0682    0.0217   -0.0711   -0.0358   -0.0059   -0.0022
          63   -0.0137   -0.0057   -0.0730   -0.0194    0.0204   -0.0101    0.0006   -0.0125
          64    0.0045    0.0042    0.0432   -0.0226    0.0573    0.0033    0.0034   -0.0014
          65    0.0102    0.0081    0.1340   -0.0620    0.1568    0.0169    0.0094   -0.0042
          66    0.0147    0.0060    0.0664   -0.0074   -0.0324   -0.0301   -0.0054   -0.0134


   Root No.      25        26        27        28        29        30        31        32

                25 A      26 A      27 A      28 A      29 A      30 A      31 A      32 A   

                 986.2    1006.3    1025.8    1079.5    1081.6    1088.7    1096.9    1114.8
  
           1    0.0004    0.0017    0.0010   -0.0051   -0.0027   -0.0017   -0.0166    0.0157
           2    0.0003    0.0013   -0.0004   -0.0140    0.0010    0.0060    0.0246   -0.0095
           3   -0.0011   -0.0039    0.0010    0.0160    0.0065   -0.0016   -0.0097   -0.0142
           4   -0.0015    0.0134   -0.0013    0.0165    0.0058   -0.0057   -0.0100   -0.0397
           5   -0.0005   -0.0160    0.0151    0.0025    0.0050   -0.0014    0.0022   -0.0146
           6    0.0020    0.0257    0.0078   -0.0085   -0.0017    0.0033   -0.0014    0.0195
           7   -0.0020   -0.0160    0.0040    0.0011    0.0012    0.0012    0.0095   -0.0040
           8    0.0008   -0.0037   -0.0005    0.0107   -0.0014   -0.0053   -0.0276    0.0209
           9    0.0061    0.0004   -0.0022   -0.0115   -0.0022    0.0028    0.0152   -0.0090
          10    0.0027    0.0034   -0.0263   -0.0030   -0.0031    0.0032    0.0043    0.0054
          11   -0.0001    0.0178   -0.0337   -0.0007   -0.0095   -0.0016    0.0179    0.0239
          12   -0.0025   -0.0036    0.0066    0.0078   -0.0131   -0.0073    0.0012   -0.0002
          13    0.0006    0.0058    0.0250   -0.0055   -0.0003    0.0031    0.0025    0.0063
          14   -0.0007   -0.0054   -0.0073    0.0063   -0.0172    0.0034   -0.0073   -0.0089
          15   -0.0014   -0.0222   -0.0323    0.0073    0.0001   -0.0012   -0.0160   -0.0220
          16    0.0010   -0.0024   -0.0001    0.0096    0.0033    0.0036    0.0054    0.0010
          17   -0.0020    0.0028    0.0020    0.0120    0.0042    0.0017   -0.0024    0.0014
          18   -0.0003    0.0049   -0.0016   -0.0308   -0.0120   -0.0042    0.0006    0.0110
          19   -0.0029    0.0018    0.0247    0.0029   -0.0016   -0.0044   -0.0043   -0.0068
          20   -0.0014   -0.0134    0.0123   -0.0037    0.0019   -0.0003    0.0132    0.0166
          21    0.0021   -0.0030   -0.0153   -0.0021    0.0013   -0.0036    0.0062    0.0068
          22    0.0012   -0.0014   -0.0250    0.0019    0.0039   -0.0035   -0.0044   -0.0066
          23    0.0007    0.0065   -0.0106    0.0024    0.0021    0.0037   -0.0109   -0.0122
          24   -0.0006    0.0145    0.0154    0.0013    0.0019   -0.0010   -0.0112   -0.0115
          25    0.0041   -0.0009   -0.0019   -0.0166   -0.0058   -0.0036   -0.0018   -0.0016
          26   -0.0024    0.0001   -0.0021   -0.0193   -0.0065   -0.0045   -0.0029   -0.0018
          27   -0.0792    0.0010   -0.0006   -0.0068   -0.0019   -0.0010   -0.0005   -0.0002
          28    0.0002    0.0008   -0.0003   -0.0032   -0.0010   -0.0011   -0.0021    0.0003
          29    0.0035   -0.0011   -0.0008   -0.0029   -0.0011   -0.0002    0.0012   -0.0006
          30    0.0258   -0.0010    0.0012    0.0212    0.0064    0.0036    0.0019    0.0020
          31    0.0003    0.0070   -0.0036   -0.0157   -0.0164   -0.0047   -0.0866    0.2176
          32   -0.0187   -0.0129   -0.0085    0.0089    0.0212    0.0204    0.1117   -0.1761
          33   -0.0119   -0.0098   -0.0053    0.0234    0.0124    0.0057    0.0145   -0.0318
          34   -0.0058    0.1279   -0.0110    0.0068    0.0000    0.0650    0.1769    0.0553
          35    0.0104   -0.0342    0.2623    0.0146   -0.0616   -0.0250   -0.0293   -0.0428
          36    0.0074    0.0624    0.1694   -0.0043   -0.0490    0.0188    0.0583    0.0414
          37    0.0145    0.0342   -0.0069   -0.0356   -0.0059    0.0081    0.0335   -0.0100
          38   -0.0313   -0.0322    0.0120    0.0726    0.0108   -0.0186   -0.0891    0.0413
          39   -0.0094    0.0005    0.0015    0.0158    0.0035   -0.0032   -0.0154    0.0014
          40   -0.0071    0.0314   -0.0006   -0.0007    0.0027    0.0010   -0.0039    0.0007
          41    0.0275   -0.0246   -0.0043   -0.0230   -0.0114    0.0013    0.0136    0.0058
          42   -0.0094   -0.0023    0.0020    0.0116    0.0034   -0.0019   -0.0067   -0.0022
          43   -0.0016   -0.0148    0.0039    0.0000    0.0009    0.0014    0.0095   -0.0025
          44    0.0123    0.0867   -0.0116   -0.0093   -0.0099   -0.0093   -0.0482    0.0177
          45   -0.0103    0.0020    0.0006    0.0169    0.0031   -0.0035   -0.0121    0.0012
          46   -0.0116   -0.1132    0.0825    0.0267   -0.1153    0.0723    0.0207    0.0014
          47   -0.0059    0.1026   -0.0084   -0.0050    0.1187   -0.1046   -0.0299   -0.0239
          48    0.0070   -0.0447   -0.0487    0.0028   -0.0953    0.0635    0.0408    0.0456
          49   -0.0043   -0.1215   -0.0656   -0.0454    0.0985    0.0951   -0.0009    0.0232
          50   -0.0017   -0.0029   -0.0478    0.0288   -0.0321   -0.0275   -0.0194   -0.0387
          51   -0.0015   -0.1055    0.0254   -0.0775    0.0989    0.1410    0.0122    0.0662
          52    0.0128   -0.0221   -0.0415   -0.0183    0.0657   -0.0659    0.0248    0.0135
          53    0.0067   -0.0463    0.0074   -0.0288    0.0854   -0.0803    0.0487    0.0437
          54   -0.0054   -0.0686    0.1255   -0.0423    0.1455   -0.1518    0.0643    0.0530
          55   -0.0059   -0.0119    0.0448    0.0243   -0.0454   -0.0772    0.0289    0.0103
          56    0.0013    0.0983    0.1079   -0.0627    0.1173    0.2024   -0.0962   -0.0552
          57    0.0039    0.0099   -0.0436   -0.0055    0.0207    0.0227   -0.0236   -0.0184
          58   -0.0415    0.0090    0.0095    0.1665    0.0486    0.0337    0.0190    0.0575
          59   -0.0398    0.0005    0.0117    0.1850    0.0520    0.0477    0.0564    0.0585
          60   -0.0290    0.0085    0.0057    0.0867    0.0209    0.0227    0.0257    0.0516
          61    0.0030    0.0015   -0.0051   -0.0637   -0.0216   -0.0160   -0.0114   -0.0071
          62    0.0271    0.0004   -0.0030   -0.0345   -0.0118   -0.0086   -0.0062   -0.0036
          63    0.3233   -0.0031    0.0031    0.0212    0.0053    0.0032    0.0002    0.0037
          64    0.0008   -0.0014   -0.0029   -0.0280   -0.0097   -0.0063   -0.0031   -0.0030
          65    0.0320   -0.0039   -0.0063   -0.0678   -0.0236   -0.0157   -0.0075   -0.0083
          66    0.3208   -0.0026    0.0021    0.0239    0.0074    0.0043    0.0041    0.0012


   Root No.      33        34        35        36        37        38        39        40

                33 A      34 A      35 A      36 A      37 A      38 A      39 A      40 A   

                1135.6    1157.5    1188.8    1207.3    1234.9    1289.3    1337.1    1367.0
  
           1    0.0237   -0.0195    0.0183    0.0273    0.0363    0.0052    0.0066   -0.0615
           2    0.0293   -0.0350    0.0080   -0.0060   -0.0325    0.0392   -0.0378    0.0009
           3   -0.0004    0.0414    0.0279    0.0083   -0.0129    0.0314   -0.0249   -0.0255
           4   -0.0234    0.0084    0.0079    0.0088    0.0148    0.0103   -0.0170    0.0800
           5   -0.0074   -0.0030    0.0156   -0.0265   -0.0095    0.0224    0.0753   -0.0086
           6    0.0164   -0.0074    0.0197   -0.0030    0.0161    0.0237    0.0393    0.0425
           7   -0.0104    0.0036   -0.0050   -0.0113   -0.0129    0.0002    0.0049    0.0069
           8   -0.0239    0.0194   -0.0020    0.0019    0.0087   -0.0066   -0.0026    0.0097
           9    0.0065   -0.0132   -0.0109   -0.0005    0.0079   -0.0083    0.0055    0.0046
          10    0.0038   -0.0016   -0.0059    0.0031   -0.0107    0.0087    0.0151   -0.0007
          11    0.0001    0.0082    0.0128    0.0036    0.0234   -0.0193   -0.0457    0.0018
          12   -0.0026    0.0034   -0.0039    0.0126    0.0044   -0.0023   -0.0117    0.0084
          13    0.0016   -0.0007   -0.0015   -0.0114    0.0007   -0.0125   -0.0120   -0.0048
          14   -0.0001   -0.0012   -0.0149   -0.0049   -0.0082   -0.0160   -0.0205   -0.0170
          15   -0.0006   -0.0053   -0.0051   -0.0214   -0.0027   -0.0230   -0.0322   -0.0106
          16    0.0048   -0.0071    0.0100    0.0051   -0.0163   -0.0014   -0.0089   -0.0061
          17    0.0062   -0.0077    0.0164    0.0124   -0.0070   -0.0051   -0.0007   -0.0110
          18   -0.0298   -0.0337   -0.0065    0.0009   -0.0030   -0.0231    0.0112    0.0085
          19   -0.0004   -0.0009   -0.0073    0.0006   -0.0070   -0.0006    0.0018   -0.0099
          20   -0.0027    0.0063    0.0052    0.0202    0.0094    0.0130    0.0039    0.0459
          21    0.0008    0.0019   -0.0051    0.0126   -0.0045    0.0087    0.0062    0.0149
          22    0.0000   -0.0030    0.0000   -0.0087   -0.0034   -0.0030    0.0030   -0.0099
          23   -0.0005   -0.0022   -0.0128    0.0081   -0.0142    0.0076    0.0157   -0.0279
          24    0.0007   -0.0052   -0.0109   -0.0060   -0.0143   -0.0008    0.0144   -0.0343
          25   -0.0069    0.0054   -0.0065   -0.0031   -0.0002   -0.0157    0.0107    0.0142
          26   -0.0078    0.0062   -0.0073   -0.0033    0.0001   -0.0179    0.0123    0.0161
          27   -0.0003   -0.0014    0.0009    0.0006   -0.0004    0.0005   -0.0005   -0.0009
          28    0.0001    0.0000    0.0032    0.0034   -0.0043   -0.0106    0.0042    0.0023
          29   -0.0002   -0.0006    0.0024    0.0021   -0.0073   -0.0114    0.0033    0.0041
          30    0.0011    0.0021   -0.0033   -0.0022    0.0028    0.0026   -0.0007    0.0004
          31    0.1956    0.0865   -0.0658   -0.0826   -0.0828   -0.0030   -0.0061    0.0950
          32    0.1846    0.0864   -0.0487    0.0194    0.0941   -0.0708    0.0711    0.0003
          33    0.1535    0.1533   -0.0355   -0.0192    0.0121   -0.0344    0.0324    0.0317
          34   -0.1376    0.1550    0.0074   -0.0247   -0.0511   -0.0207    0.0262   -0.1106
          35    0.0196   -0.0124   -0.0547    0.0553   -0.0106   -0.0197   -0.0797    0.0010
          36   -0.0167    0.0534   -0.0280    0.0363   -0.0148   -0.0182   -0.0462   -0.0308
          37    0.0615   -0.0528   -0.0037    0.0034   -0.0045    0.0182   -0.0277    0.0012
          38   -0.0706    0.1087    0.0266    0.0022    0.0085   -0.0124    0.0435   -0.0498
          39    0.0022    0.0261    0.0092    0.0045    0.0084   -0.0029    0.0183   -0.0317
          40    0.0462   -0.0166    0.0247    0.0096   -0.0189    0.0363   -0.0443   -0.0055
          41   -0.0400   -0.0092   -0.0500   -0.0056    0.0532   -0.0664    0.0796   -0.0231
          42   -0.0015    0.0149    0.0096   -0.0027   -0.0151    0.0150   -0.0231    0.0231
          43   -0.0077    0.0016   -0.0047   -0.0115   -0.0144    0.0025    0.0014    0.0076
          44    0.0670   -0.0174    0.0250    0.0547    0.0845   -0.0277    0.0540   -0.0779
          45   -0.0031    0.0267    0.0130   -0.0008   -0.0045    0.0087    0.0010   -0.0097
          46   -0.0025    0.0038    0.0661   -0.0437    0.0455   -0.0110   -0.0126    0.0059
          47   -0.0127    0.0058   -0.0735    0.0671   -0.0321    0.0009   -0.0220    0.0123
          48    0.0108    0.0045    0.0532   -0.0290    0.0391   -0.0137   -0.0254    0.0013
          49   -0.0259    0.0218   -0.0281    0.0857   -0.0024    0.0228    0.0040    0.0044
          50    0.0010   -0.0091   -0.0036   -0.0310   -0.0070   -0.0212   -0.0240   -0.0155
          51   -0.0194    0.0288   -0.0546    0.1061   -0.0122    0.0116   -0.0109   -0.0185
          52    0.0020   -0.0037    0.0208   -0.0404    0.0126   -0.0266   -0.0232   -0.0357
          53   -0.0003    0.0040    0.0410   -0.0291    0.0370   -0.0199   -0.0294    0.0181
          54    0.0047   -0.0022    0.0552   -0.0763    0.0425   -0.0522   -0.0517   -0.0468
          55   -0.0012    0.0012   -0.0239    0.0328   -0.0238    0.0200    0.0324   -0.0278
          56   -0.0026   -0.0117    0.0436   -0.1013    0.0381   -0.0558   -0.0641    0.0193
          57    0.0017   -0.0074   -0.0035   -0.0211   -0.0092   -0.0091    0.0060   -0.0340
          58    0.0069   -0.0666   -0.0467   -0.0167    0.0521    0.0175    0.0057   -0.0057
          59   -0.0015   -0.0910   -0.0667   -0.0354    0.0382    0.0253   -0.0040    0.0081
          60   -0.0340   -0.0834   -0.0569   -0.0243    0.0387   -0.0057    0.0162    0.0163
          61   -0.0399    0.0404   -0.0807   -0.0610    0.1025    0.1557   -0.0551   -0.0558
          62   -0.0195    0.0186   -0.0328   -0.0230    0.0348    0.0376   -0.0082   -0.0057
          63   -0.0003   -0.0007    0.0017    0.0023    0.0028   -0.0023    0.0026   -0.0029
          64   -0.0142    0.0128   -0.0221   -0.0152    0.0202    0.0169   -0.0012    0.0021
          65   -0.0426    0.0415   -0.0849   -0.0646    0.1041    0.1591   -0.0563   -0.0551
          66    0.0014   -0.0042    0.0031    0.0018   -0.0105   -0.0104    0.0017    0.0069


   Root No.      41        42        43        44        45        46        47        48

                41 A      42 A      43 A      44 A      45 A      46 A      47 A      48 A   

                1399.5    1404.3    1407.8    1417.0    1519.0    1733.0    1790.0    2261.8
  
           1   -0.0167   -0.0097   -0.0003   -0.0234   -0.0397   -0.0026   -0.0002    0.0028
           2    0.0306    0.0113   -0.0008    0.0086   -0.0486    0.0005   -0.0042    0.0034
           3    0.0047    0.0023   -0.0014   -0.0056   -0.0493   -0.0012   -0.0028    0.0039
           4    0.0062    0.0044    0.0001    0.0450    0.0086   -0.0115    0.0001    0.0019
           5   -0.0103   -0.0034    0.0000   -0.0177    0.0028    0.0068    0.0007    0.0008
           6   -0.0038   -0.0010   -0.0016    0.0263    0.0039   -0.0097    0.0005    0.0016
           7    0.0350   -0.0138   -0.0246    0.0027    0.0017    0.0003   -0.0002   -0.0003
           8   -0.0610   -0.0349   -0.0063   -0.0122    0.0062   -0.0003    0.0009    0.0017
           9   -0.0119    0.0208   -0.0298   -0.0013    0.0025   -0.0001    0.0000    0.0008
          10    0.0020    0.0018    0.0017   -0.0226   -0.0008    0.0874   -0.0796    0.0000
          11    0.0006   -0.0014   -0.0029    0.0372   -0.0009   -0.0227    0.0302   -0.0001
          12    0.0022    0.0014    0.0011   -0.0054    0.0004    0.1090   -0.0939    0.0000
          13    0.0032    0.0021    0.0021   -0.0232    0.0000    0.0875    0.0789   -0.0001
          14    0.0019    0.0004    0.0005   -0.0090    0.0005   -0.0936   -0.0758   -0.0001
          15    0.0070    0.0042    0.0035   -0.0367   -0.0017    0.0618    0.0624   -0.0003
          16    0.0050    0.0019   -0.0018   -0.0014    0.0945    0.0003    0.0006   -0.1026
          17    0.0011    0.0003   -0.0013   -0.0037    0.1134    0.0005    0.0008   -0.1184
          18   -0.0005    0.0002    0.0009    0.0011    0.0473    0.0004    0.0010   -0.0091
          19   -0.0007   -0.0006   -0.0003   -0.0009   -0.0011   -0.0764    0.0810    0.0000
          20    0.0118    0.0091    0.0075   -0.0628    0.0012    0.0045   -0.0149    0.0001
          21    0.0070    0.0051    0.0045   -0.0434   -0.0012   -0.1071    0.1065    0.0000
          22   -0.0016   -0.0010   -0.0004   -0.0002    0.0010   -0.0764   -0.0802    0.0000
          23   -0.0115   -0.0084   -0.0071    0.0641   -0.0017    0.0986    0.0935    0.0000
          24   -0.0102   -0.0072   -0.0052    0.0418    0.0006   -0.0444   -0.0530    0.0000
          25   -0.0039   -0.0012    0.0017    0.0031   -0.0814   -0.0003   -0.0004   -0.0934
          26   -0.0044   -0.0013    0.0020    0.0035   -0.0926   -0.0003   -0.0004   -0.1065
          27    0.0003    0.0001   -0.0001   -0.0002    0.0065    0.0000    0.0000    0.0060
          28   -0.0009   -0.0003    0.0002   -0.0001    0.0118    0.0001    0.0003    0.2026
          29   -0.0001    0.0000    0.0002    0.0006    0.0132    0.0002    0.0002    0.2307
          30   -0.0004   -0.0002    0.0000    0.0001   -0.0042    0.0000    0.0000   -0.0123
          31    0.0290    0.0104   -0.0093    0.0377    0.0494    0.0018    0.0001   -0.0093
          32   -0.0392   -0.0184   -0.0031   -0.0123    0.0619    0.0001    0.0015   -0.0117
          33   -0.0182   -0.0062   -0.0066    0.0050    0.0484   -0.0002    0.0003   -0.0039
          34   -0.0122   -0.0026   -0.0060   -0.0446   -0.0059    0.0057   -0.0001    0.0000
          35    0.0103    0.0024    0.0050    0.0008   -0.0059   -0.0011   -0.0279   -0.0004
          36    0.0030    0.0006   -0.0016   -0.0004   -0.0073    0.0008   -0.0189    0.0008
          37   -0.1116   -0.0247    0.3291    0.0121    0.0072   -0.0002   -0.0002   -0.0004
          38    0.1125    0.2053    0.0639    0.0364   -0.0073    0.0001    0.0000   -0.0001
          39    0.0339    0.1377    0.1633    0.0303   -0.0031   -0.0001   -0.0003    0.0006
          40   -0.2170    0.2450   -0.0198   -0.0089   -0.0169   -0.0014   -0.0014    0.0009
          41    0.1212    0.1509    0.1349    0.0442    0.0280    0.0009    0.0014    0.0016
          42   -0.0133   -0.1837   -0.0901   -0.0273   -0.0066   -0.0003   -0.0001    0.0021
          43    0.0113   -0.0010   -0.0110    0.0018    0.0016    0.0001   -0.0003    0.0001
          44    0.2381   -0.0294   -0.1173    0.0040   -0.0273   -0.0011   -0.0009   -0.0002
          45    0.0960   -0.2224    0.2931    0.0155    0.0030    0.0002    0.0000   -0.0005
          46   -0.0096   -0.0066   -0.0064    0.0743    0.0011   -0.0002   -0.0002   -0.0003
          47    0.0135    0.0085    0.0073   -0.0680   -0.0009    0.0955   -0.0786    0.0003
          48   -0.0052   -0.0045   -0.0054    0.0590   -0.0001    0.0645   -0.0521    0.0000
          49   -0.0038   -0.0078   -0.0044    0.0766    0.0002   -0.0014   -0.0010    0.0000
          50    0.0041    0.0035    0.0026   -0.0307   -0.0003   -0.0948   -0.0764   -0.0002
          51   -0.0063   -0.0102   -0.0071    0.0855    0.0004   -0.0647   -0.0526   -0.0001
          52   -0.0090   -0.0073   -0.0061    0.0551   -0.0002   -0.0511    0.0277    0.0001
          53    0.0025    0.0015    0.0006    0.0045    0.0025    0.0748   -0.1135    0.0000
          54   -0.0114   -0.0097   -0.0087    0.0799   -0.0001   -0.0249   -0.0333    0.0000
          55   -0.0122   -0.0083   -0.0064    0.0549   -0.0002   -0.0521   -0.0285    0.0000
          56    0.0158    0.0104    0.0086   -0.0769    0.0018   -0.0054   -0.0736   -0.0001
          57   -0.0077   -0.0056   -0.0037    0.0258    0.0010   -0.0786   -0.0915    0.0000
          58   -0.0048   -0.0039    0.0014   -0.0024   -0.0585   -0.0009    0.0005   -0.0355
          59    0.0018   -0.0015    0.0002    0.0034   -0.0750    0.0001   -0.0003   -0.0310
          60   -0.0041   -0.0023    0.0031    0.0037   -0.0887   -0.0003    0.0005    0.1070
          61    0.0118    0.0034   -0.0049   -0.0089    0.1397    0.0003    0.0002    0.0372
          62    0.0001    0.0000    0.0000   -0.0001   -0.0334   -0.0002   -0.0003   -0.1164
          63   -0.0023   -0.0010    0.0001   -0.0015    0.0049   -0.0002    0.0001    0.0083
          64   -0.0013   -0.0004    0.0006    0.0012   -0.0520   -0.0002   -0.0003   -0.1208
          65    0.0119    0.0036   -0.0049   -0.0085    0.1338    0.0003    0.0002    0.0211
          66    0.0015    0.0008    0.0005    0.0020   -0.0089    0.0003   -0.0002   -0.0026


   Root No.      49        50        51        52        53        54        55        56

                49 A      50 A      51 A      52 A      53 A      54 A      55 A      56 A   

                2882.4    2890.8    3034.6    3077.8    3084.3    3120.0    3125.5    3129.2
  
           1   -0.0100    0.0125    0.0008    0.0003   -0.0004   -0.0001    0.0000    0.0000
           2   -0.0158    0.0181    0.0011    0.0006   -0.0004   -0.0001    0.0000   -0.0001
           3    0.0280   -0.0320   -0.0023   -0.0013    0.0004    0.0000    0.0000    0.0000
           4    0.0119    0.0114   -0.0002    0.0000    0.0003    0.0000    0.0000   -0.0001
           5    0.0201    0.0177   -0.0001   -0.0001   -0.0003    0.0000    0.0000   -0.0002
           6   -0.0299   -0.0264   -0.0001    0.0001    0.0000    0.0000    0.0000   -0.0002
           7    0.0007   -0.0007    0.0002    0.0004   -0.0457    0.0000    0.0000    0.0010
           8   -0.0001    0.0001    0.0001    0.0001   -0.0194    0.0000    0.0000   -0.0002
           9   -0.0012    0.0010    0.0001   -0.0550   -0.0005    0.0001    0.0001    0.0013
          10   -0.0003   -0.0001    0.0000    0.0000    0.0000    0.0000    0.0000   -0.0017
          11    0.0006    0.0004    0.0000    0.0000    0.0000    0.0000    0.0000   -0.0045
          12   -0.0001   -0.0001   -0.0001    0.0000    0.0000   -0.0001   -0.0001   -0.0052
          13   -0.0003    0.0000    0.0000    0.0005    0.0003    0.0000    0.0001    0.0065
          14   -0.0001    0.0000    0.0000   -0.0018   -0.0010    0.0000   -0.0002   -0.0287
          15   -0.0006   -0.0004    0.0000   -0.0005   -0.0003    0.0000   -0.0001   -0.0101
          16    0.0005   -0.0003    0.0293    0.0001    0.0000   -0.0006   -0.0002    0.0000
          17    0.0004   -0.0003    0.0280    0.0004    0.0003   -0.0007    0.0001    0.0000
          18   -0.0009    0.0010   -0.0642    0.0001    0.0000    0.0001    0.0000    0.0000
          19    0.0003    0.0003    0.0000    0.0000    0.0000   -0.0001    0.0000   -0.0050
          20    0.0000    0.0000    0.0000    0.0000    0.0000    0.0002    0.0000    0.0077
          21    0.0002    0.0002    0.0000    0.0000    0.0000   -0.0001   -0.0001   -0.0021
          22    0.0003    0.0003    0.0000    0.0001    0.0000    0.0000    0.0001    0.0147
          23   -0.0002   -0.0001    0.0000    0.0001    0.0001    0.0000    0.0000    0.0031
          24    0.0001    0.0001    0.0000    0.0002    0.0001   -0.0002    0.0000    0.0232
          25    0.0000    0.0000    0.0007    0.0000    0.0000   -0.0299   -0.0497    0.0001
          26    0.0000    0.0001    0.0007    0.0000    0.0000   -0.0372    0.0412   -0.0001
          27    0.0000    0.0000   -0.0003    0.0000    0.0000    0.0023   -0.0034    0.0000
          28    0.0002   -0.0003   -0.0057   -0.0001    0.0000    0.0058   -0.0001    0.0000
          29    0.0002   -0.0003   -0.0065   -0.0001    0.0000    0.0066    0.0005    0.0000
          30    0.0002   -0.0003    0.0000    0.0000    0.0000   -0.0003    0.0000    0.0000
          31    0.1273   -0.1485   -0.0056   -0.0038    0.0007    0.0001    0.0000    0.0000
          32    0.1943   -0.2190   -0.0089   -0.0105    0.0045    0.0001    0.0000    0.0000
          33   -0.3397    0.3830    0.0230    0.0117   -0.0060   -0.0004    0.0000    0.0000
          34   -0.1578   -0.1439   -0.0009   -0.0002    0.0006   -0.0001    0.0000    0.0001
          35   -0.2446   -0.2150    0.0002    0.0014   -0.0004    0.0000    0.0000   -0.0006
[...]
 FREQ.      1337.12        C  2 --  C  4          +18.8% ( 68.9%)    85.9%
 T-DIPOLE    0.2657        C  2 --  C  5          +15.4% ( 62.4%)    61.2%
 TRAVEL      0.0724        C  1 --  C  2          +14.3% ( 60.2%)     3.2%
 RED. MASS   2.3829        C  2 --  H 12          +12.4% ( 56.0%)     0.0%
 EFF. MASS   9.6124

 VIBRATION   40   40A       ATOM PAIR        ENERGY CONTRIBUTION    RADIAL
 FREQ.      1367.01        C  1 --  C  2          +18.3% ( 70.6%)    80.9%
 T-DIPOLE    0.6088        C  2 --  H 12          +12.1% ( 57.3%)     0.3%
 TRAVEL      0.0695        C  2 --  C  5          +11.1% ( 55.0%)    65.3%
 RED. MASS   2.3386        C  2 --  C  4           +9.7% ( 51.5%)    20.6%
 EFF. MASS  10.2168

 VIBRATION   41   41A       ATOM PAIR        ENERGY CONTRIBUTION    RADIAL
 FREQ.      1399.51        C  3 --  H 15          +25.0% ( 60.7%)     4.9%
 T-DIPOLE    0.1357        C  3 --  H 14          +24.2% ( 59.7%)     3.7%
 TRAVEL      0.1041        C  3 --  H 13          +17.9% ( 51.2%)     0.8%
 RED. MASS   0.9520        C  1 --  C  3          +16.8% ( 49.6%)    95.5%
 EFF. MASS   4.4428

 VIBRATION   42   42A       ATOM PAIR        ENERGY CONTRIBUTION    RADIAL
 FREQ.      1404.35        C  3 --  H 14          +41.5% ( 59.8%)     0.1%
 T-DIPOLE    0.0614        C  3 --  H 13          +23.2% ( 44.7%)    13.5%
 TRAVEL      0.1538        C  3 --  H 15          +20.2% ( 41.7%)     2.0%
 RED. MASS   0.3904        C  1 --  C  3           +7.4% ( 25.3%)    69.5%
 EFF. MASS   2.0293

 VIBRATION   43   43A       ATOM PAIR        ENERGY CONTRIBUTION    RADIAL
 FREQ.      1407.82        C  3 --  H 13          +47.4% ( 60.3%)     0.7%
 T-DIPOLE    0.0554        C  3 --  H 15          +34.0% ( 51.1%)     3.6%
 TRAVEL      0.1707        C  3 --  H 14          +10.1% ( 27.8%)    40.5%
 RED. MASS   0.4163        C  1 --  C  3           +4.9% ( 19.5%)     0.9%
 EFF. MASS   1.6442

 VIBRATION   44   44A       ATOM PAIR        ENERGY CONTRIBUTION    RADIAL
 FREQ.      1417.05        C  7 --  C  8          +19.4% ( 71.3%)   100.0%
 T-DIPOLE    0.2036        C  5 --  C  7           +8.8% ( 48.0%)    99.9%
 TRAVEL      0.0697        C  4 --  C  8           +8.8% ( 48.0%)    99.9%
 RED. MASS   1.7662        C  5 --  C  8           +8.4% ( 46.9%)     0.1%
 EFF. MASS   9.7930

 VIBRATION   45   45A       ATOM PAIR        ENERGY CONTRIBUTION    RADIAL
 FREQ.      1519.05        C  1 --  C  6          +22.7% ( 76.7%)    75.2%
 T-DIPOLE    0.1182        C  6 --  H 20          +17.9% ( 68.1%)     0.7%
 TRAVEL      0.0637        C  6 --  C 10          +14.2% ( 60.7%)    82.8%
 RED. MASS   3.7923        C  9 --  C 10          +13.8% ( 59.8%)    99.9%
 EFF. MASS  10.9498        C  9 --  H 21          +11.3% ( 54.0%)     9.3%
                           C  9 --  H 22          +11.3% ( 54.0%)     9.3%

 VIBRATION   46   46A       ATOM PAIR        ENERGY CONTRIBUTION    RADIAL
 FREQ.      1732.98        C  5 --  C  8          +18.3% ( 72.8%)    99.9%
 T-DIPOLE    0.4069        C  4 --  C  7          +18.1% ( 72.5%)    99.9%
 TRAVEL      0.0569        C  4 --  C  8          +10.7% ( 55.7%)    25.8%
 RED. MASS   2.7223        C  5 --  C  7          +10.7% ( 55.7%)    26.1%
 EFF. MASS  12.0251

 VIBRATION   47   47A       ATOM PAIR        ENERGY CONTRIBUTION    RADIAL
 FREQ.      1790.00        C  4 --  C  7          +18.0% ( 70.3%)    99.8%
 T-DIPOLE    0.3181        C  5 --  C  8          +17.8% ( 69.9%)    99.8%
 TRAVEL      0.0565        C  7 --  C  8          +12.1% ( 57.7%)     0.0%
 RED. MASS   2.6852        C  4 --  C  8          +10.9% ( 54.7%)    67.1%
 EFF. MASS  11.7997        C  5 --  C  7          +10.9% ( 54.6%)    65.2%

 VIBRATION   48   48A       ATOM PAIR        ENERGY CONTRIBUTION    RADIAL
 FREQ.      2261.80        C  6 --  C 10          +42.8% ( 86.0%)    99.8%
 T-DIPOLE    0.5831        C  9 --  C 10          +41.3% ( 84.4%)   100.0%
 TRAVEL      0.0502        C  1 --  C  6           +4.4% ( 27.7%)    41.3%
 RED. MASS   5.8390        C  6 --  H 20           +4.4% ( 27.6%)     4.1%
 EFF. MASS  11.8460

 VIBRATION   49   49A       ATOM PAIR        ENERGY CONTRIBUTION    RADIAL
 FREQ.      2882.41        C  2 --  H 12          +54.4% ( 75.0%)   100.0%
 T-DIPOLE    0.1062        C  1 --  H 11          +42.3% ( 66.2%)   100.0%
 TRAVEL      0.1273        C  1 --  C  2           +1.2% ( 11.0%)     9.3%
 RED. MASS   0.4713        C  2 --  C  4           +0.6% (  7.6%)    10.9%
 EFF. MASS   1.4440

 VIBRATION   50   50A       ATOM PAIR        ENERGY CONTRIBUTION    RADIAL
 FREQ.      2890.81        C  1 --  H 11          +54.4% ( 74.8%)   100.0%
 T-DIPOLE    0.1855        C  2 --  H 12          +42.5% ( 66.1%)   100.0%
 TRAVEL      0.1274        C  1 --  C  2           +0.9% (  9.5%)     3.9%
 RED. MASS   0.4710        C  1 --  C  6           +0.6% (  7.9%)    11.9%
 EFF. MASS   1.4367

 VIBRATION   51   51A       ATOM PAIR        ENERGY CONTRIBUTION    RADIAL
 FREQ.      3034.60        C  6 --  H 20          +97.0% ( 99.9%)   100.0%
 T-DIPOLE    0.3146        C  6 --  C 10           +1.6% ( 12.7%)    41.5%
 TRAVEL      0.1210        C  1 --  C  6           +1.3% ( 11.7%)    14.6%
 RED. MASS   0.9266
 EFF. MASS   1.5179

 VIBRATION   52   52A       ATOM PAIR        ENERGY CONTRIBUTION    RADIAL
 FREQ.      3077.80        C  3 --  H 14          +49.3% ( 72.5%)    97.1%
 T-DIPOLE    0.0297        C  3 --  H 13          +48.5% ( 71.9%)    97.0%
 TRAVEL      0.1206        C  1 --  C  3           +1.0% ( 10.4%)     0.0%
 RED. MASS   0.5077        C  3 --  H 15           +1.0% ( 10.1%)     0.0%
 EFF. MASS   1.5052

 VIBRATION   53   53A       ATOM PAIR        ENERGY CONTRIBUTION    RADIAL
 FREQ.      3084.34        C  3 --  H 15          +60.2% ( 80.1%)    98.7%
 T-DIPOLE    0.0350        C  3 --  H 13          +19.7% ( 45.7%)    86.4%
 TRAVEL      0.1205        C  3 --  H 14          +19.1% ( 45.0%)    86.1%
 RED. MASS   0.4676        C  1 --  C  3           +1.0% ( 10.4%)     0.1%
 EFF. MASS   1.5064

 VIBRATION   54   54A       ATOM PAIR        ENERGY CONTRIBUTION    RADIAL
 FREQ.      3120.03        C  9 --  H 21          +52.3% ( 72.4%)    95.7%
 T-DIPOLE    0.3622        C  9 --  H 22          +45.9% ( 67.8%)    94.4%
 TRAVEL      0.1236        C  9 --  C 10           +1.8% ( 13.4%)    99.9%
 RED. MASS   0.4877
 EFF. MASS   1.4156

 VIBRATION   55   55A       ATOM PAIR        ENERGY CONTRIBUTION    RADIAL
 FREQ.      3125.54        C  9 --  H 22          +52.5% ( 74.1%)    97.5%
 T-DIPOLE    0.2315        C  9 --  H 21          +46.3% ( 69.7%)    96.7%
 TRAVEL      0.1163        C  9 --  C 10           +1.2% ( 11.2%)     0.1%
 RED. MASS   0.5352
 EFF. MASS   1.5951

 VIBRATION   56   56A       ATOM PAIR        ENERGY CONTRIBUTION    RADIAL
 FREQ.      3129.24        C  5 --  H 17          +49.1% ( 71.8%)   100.0%
 T-DIPOLE    0.3117        C  8 --  H 19          +39.5% ( 64.4%)   100.0%
 TRAVEL      0.1208        C  7 --  H 18           +4.4% ( 21.4%)   100.0%
 RED. MASS   0.4053        C  4 --  H 16           +2.6% ( 16.7%)   100.0%
 EFF. MASS   1.4760

 VIBRATION   57   57A       ATOM PAIR        ENERGY CONTRIBUTION    RADIAL
 FREQ.      3131.84        C  7 --  H 18          +45.1% ( 68.7%)   100.0%
 T-DIPOLE    0.4372        C  4 --  H 16          +43.4% ( 67.4%)   100.0%
 TRAVEL      0.1209        C  5 --  H 17           +6.0% ( 25.0%)   100.0%
 RED. MASS   0.3996        C  8 --  H 19           +1.4% ( 12.3%)    99.9%
 EFF. MASS   1.4734

 VIBRATION   58   58A       ATOM PAIR        ENERGY CONTRIBUTION    RADIAL
 FREQ.      3142.67        C  8 --  H 19          +30.5% ( 56.8%)    99.9%
 T-DIPOLE    0.5341        C  5 --  H 17          +24.7% ( 51.1%)    99.9%
 TRAVEL      0.1157        C  4 --  H 16          +23.5% ( 49.9%)    99.9%
 RED. MASS   0.2449        C  7 --  H 18          +15.5% ( 40.4%)    99.9%
 EFF. MASS   1.6037

 VIBRATION   59   59A       ATOM PAIR        ENERGY CONTRIBUTION    RADIAL
 FREQ.      3153.45        C  7 --  H 18          +30.0% ( 56.4%)   100.0%
 T-DIPOLE    0.2485        C  4 --  H 16          +25.2% ( 51.7%)    99.9%
 TRAVEL      0.1121        C  8 --  H 19          +23.3% ( 49.7%)   100.0%
 RED. MASS   0.2471        C  5 --  H 17          +14.8% ( 39.6%)    99.9%
 EFF. MASS   1.7007

 VIBRATION   60   60A       ATOM PAIR        ENERGY CONTRIBUTION    RADIAL
 FREQ.      3178.36        C  3 --  H 15          +38.6% ( 59.8%)    97.8%
 T-DIPOLE    0.0301        C  3 --  H 13          +30.5% ( 53.2%)    96.6%
 TRAVEL      0.1366        C  3 --  H 14          +30.4% ( 53.1%)    96.6%
 RED. MASS   0.3294        C  1 --  C  3           +0.3% (  5.0%)    98.7%
 EFF. MASS   1.1362

 SYMMETRY NUMBER FOR POINT-GROUP C1  =  1


          SYSTEM IS A GROUND STATE


    NULL



          MOLECULE IS NOT LINEAR

          THERE ARE 60 GENUINE VIBRATIONS IN THIS SYSTEM
          THIS THERMODYNAMICS CALCULATION IS LIMITED TO
          MOLECULES WHICH HAVE NO INTERNAL ROTATIONS




                    CALCULATED THERMODYNAMIC PROPERTIES
                                          *
   TEMP. (K)   PARTITION FUNCTION   H.O.F.    ENTHALPY  HEAT CAPACITY ENTROPY
                                   KCAL/MOL   CAL/MOLE    CAL/K/MOL  CAL/K/MOL


 298.00  VIB.     0.5824D+03                  4473.0986    31.9320    27.6633
         ROT.     0.7424D+06                   888.2813     2.9808    29.8431
         INT.     0.4324D+09                  5361.3799    34.9128    57.5064
         TRA.     0.1470D+28                  1480.4688     4.9680    40.5480
         TOT.                       74.376    6841.8488    39.8808    98.0544

 200.00  VIB.     0.5103D+02                  1938.2225    20.0629    17.5058
         ROT.     0.4082D+06                   596.1620     2.9808    28.6544
         INT.     0.2083D+08                  2534.3845    23.0437    46.1602
         TRA.     0.8080D+27                   993.6033     4.9680    38.5668
         TOT.                       71.063    3527.9877    28.0117    84.7270

 210.00  VIB.     0.6515D+02                  2144.4453    21.1861    18.5117
         ROT.     0.4392D+06                   625.9700     2.9808    28.7998
         INT.     0.2861D+08                  2770.4153    24.1669    47.3115
         TRA.     0.8694D+27                  1043.2834     4.9680    38.8092
         TOT.                       71.348    3813.6987    29.1349    86.1208

 220.00  VIB.     0.8325D+02                  2362.0312    22.3353    19.5237
         ROT.     0.4709D+06                   655.7781     2.9808    28.9385
         INT.     0.3920D+08                  3017.8094    25.3161    48.4622
         TRA.     0.9322D+27                  1092.9636     4.9680    39.0403
         TOT.                       71.645    4110.7730    30.2842    87.5025

 230.00  VIB.     0.1065D+03                  2591.2341    23.5092    20.5424
         ROT.     0.5034D+06                   685.5862     2.9808    29.0710
         INT.     0.5360D+08                  3276.8203    26.4900    49.6134
         TRA.     0.9965D+27                  1142.6437     4.9680    39.2612
         TOT.                       71.954    4419.4640    31.4580    88.8745

 240.00  VIB.     0.1363D+03                  2832.2896    24.7055    21.5681
         ROT.     0.5366D+06                   715.3943     2.9808    29.1979
         INT.     0.7313D+08                  3547.6839    27.6863    50.7660
         TRA.     0.1062D+28                  1192.3239     4.9680    39.4726
         TOT.                       72.275    4740.0078    32.6543    90.2386

 250.00  VIB.     0.1747D+03                  3085.4093    25.9215    22.6012
         ROT.     0.5704D+06                   745.2024     2.9808    29.3196
         INT.     0.9963D+08                  3830.6117    28.9023    51.9208
         TRA.     0.1129D+28                  1242.0041     4.9680    39.6754
         TOT.                       72.607    5072.6158    33.8704    91.5962

 260.00  VIB.     0.2240D+03                  3350.7759    27.1543    23.6418
         ROT.     0.6050D+06                   775.0105     2.9808    29.4365
         INT.     0.1355D+09                  4125.7865    30.1351    53.0783
         TRA.     0.1198D+28                  1291.6842     4.9680    39.8703
         TOT.                       72.952    5417.4707    35.1031    92.9486

 270.00  VIB.     0.2876D+03                  3628.5401    28.4005    24.6900
         ROT.     0.6402D+06                   804.8186     2.9808    29.5490
         INT.     0.1842D+09                  4433.3587    31.3813    54.2390
         TRA.     0.1267D+28                  1341.3644     4.9680    40.0578
         TOT.                       73.309    5774.7231    36.3493    94.2967

 280.00  VIB.     0.3697D+03                  3918.8186    29.6566    25.7455
         ROT.     0.6761D+06                   834.6267     2.9808    29.6574
         INT.     0.2500D+09                  4753.4453    32.6374    55.4029
         TRA.     0.1338D+28                  1391.0445     4.9680    40.2384
         TOT.                       73.679    6144.4898    37.6054    95.6413

 290.00  VIB.     0.4757D+03                  4221.6942    30.9193    26.8082
         ROT.     0.7127D+06                   864.4348     2.9808    29.7620
         INT.     0.3390D+09                  5086.1290    33.9001    56.5702
         TRA.     0.1411D+28                  1440.7247     4.9680    40.4128
         TOT.                       74.061    6526.8537    38.8682    96.9830

 300.00  VIB.     0.6127D+03                  4537.2159    32.1853    27.8778
         ROT.     0.7499D+06                   894.2429     2.9808    29.8630
         INT.     0.4595D+09                  5431.4588    35.1661    57.7408
         TRA.     0.1484D+28                  1490.4049     4.9680    40.5812
         TOT.                       74.456    6921.8637    40.1341    98.3220

 310.00  VIB.     0.7901D+03                  4865.4003    33.4513    28.9538
         ROT.     0.7877D+06                   924.0510     2.9808    29.9608
         INT.     0.6223D+09                  5789.4513    36.4322    58.9145
         TRA.     0.1559D+28                  1540.0850     4.9680    40.7441
         TOT.                       74.864    7329.5364    41.4002    99.6586

 320.00  VIB.     0.1020D+04                  5206.2332    34.7145    30.0358
         ROT.     0.8261D+06                   953.8591     2.9808    30.0554
         INT.     0.8425D+09                  6160.0924    37.6953    60.0912
         TRA.     0.1635D+28                  1589.7652     4.9680    40.9018
         TOT.                       75.284    7749.8576    42.6633   100.9930

 330.00  VIB.     0.1318D+04                  5559.6720    35.9721    31.1233
         ROT.     0.8651D+06                   983.6672     2.9808    30.1471
         INT.     0.1140D+10                  6543.3392    38.9529    61.2704
         TRA.     0.1713D+28                  1639.4454     4.9680    41.0547
         TOT.                       75.717    8182.7846    43.9209   102.3251

 340.00  VIB.     0.1705D+04                  5925.6479    37.2215    32.2157
         ROT.     0.9047D+06                  1013.4753     2.9808    30.2361
         INT.     0.1542D+10                  6939.1232    40.2024    62.4518
         TRA.     0.1791D+28                  1689.1255     4.9680    41.2030
         TOT.                       76.163    8628.2487    45.1704   103.6548

 350.00  VIB.     0.2208D+04                  6304.0686    38.4607    33.3126
         ROT.     0.9449D+06                  1043.2834     2.9808    30.3225
         INT.     0.2086D+10                  7347.3520    41.4415    63.6351
         TRA.     0.1871D+28                  1738.8057     4.9680    41.3470
         TOT.                       76.621    9086.1577    46.4095   104.9821

 360.00  VIB.     0.2862D+04                  6694.8208    39.6876    34.4133
         ROT.     0.9857D+06                  1073.0915     2.9808    30.4065
         INT.     0.2821D+10                  7767.9123    42.6684    64.8198
         TRA.     0.1951D+28                  1788.4859     4.9680    41.4870
         TOT.                       77.091    9556.3982    47.6364   106.3067

 370.00  VIB.     0.3713D+04                  7097.7732    40.9004    35.5172
         ROT.     0.1027D+07                  1102.8996     2.9808    30.4882
         INT.     0.3814D+10                  8200.6728    43.8813    66.0054
         TRA.     0.2033D+28                  1838.1660     4.9680    41.6231
         TOT.                       77.573   10038.8388    48.8493   107.6285

 380.00  VIB.     0.4822D+04                  7512.7783    42.0979    36.6239
         ROT.     0.1069D+07                  1132.7077     2.9808    30.5677
         INT.     0.5155D+10                  8645.4860    45.0787    67.1916
         TRA.     0.2116D+28                  1887.8462     4.9680    41.7556
         TOT.                       78.068   10533.3321    50.0467   108.9472

 390.00  VIB.     0.6268D+04                  7939.6752    43.2786    37.7327
         ROT.     0.1111D+07                  1162.5158     2.9808    30.6451
         INT.     0.6967D+10                  9102.1910    46.2595    68.3778
         TRA.     0.2200D+28                  1937.5263     4.9680    41.8846
         TOT.                       78.574   11039.7174    51.2275   110.2624

 400.00  VIB.     0.8154D+04                  8378.2921    44.4417    38.8432
         ROT.     0.1154D+07                  1192.3239     2.9808    30.7205
         INT.     0.9414D+10                  9570.6160    47.4225    69.5637
         TRA.     0.2285D+28                  1987.2065     4.9680    42.0104
         TOT.                       79.092   11557.8225    52.3905   111.5741

   *: NOTE: HEATS OF FORMATION ARE RELATIVE TO THE
            ELEMENTS IN THEIR STANDARD STATE AT 298K
              (=  Standard Enthalpy of Formation).

            Hvib:  Zero-point energy is not included.
                   frequencies of less than zero cm-1 are not included.
            Hrot = (3/2)RT
            Htra = (3/2)RT + pV = (5/2)RT

            Heat capacity is Cp, not Cv

           For more information, see: HTTP://OpenMOPAC.net/Manual/thermochemistry.html


           FORCE CONSTANT IN CARTESIAN COORDINATES (Millidynes/A)

    ATOM   CHEMICAL       X               Y               Z
   NUMBER   SYMBOL  FORCE CONSTANT  FORCE CONSTANT  FORCE CONSTANT

      1       C        7.976581        8.309340        8.766525
      2       C        8.552267        8.217535        8.621959
      3       C        8.379526        8.093400        8.305507
      4       C        6.847409        8.458055       11.475748
      5       C        6.780167       12.687555        7.278958
      6       C        8.350897       10.173212        8.503143
      7       C        7.501371       10.334734        9.628134
      8       C        7.518243        9.788994       10.167660
      9       C       11.717392       12.651439        1.904405
     10       C       11.729256       14.715159        1.901093
     11       H        1.103465        1.585095        3.364749
     12       H        1.144266        1.699202        3.042219
     13       H        1.161806        1.889904        3.721640
     14       H        1.100027        1.824085        3.830388
     15       H        5.400995        0.724450        0.666387
     16       H        0.705800        2.657599        3.075170
     17       H        0.670961        4.638004        1.119203
     18       H        1.827065        3.798956        0.836003
     19       H        1.855602        0.700792        3.903896
     20       H        0.972800        0.945095        4.167680
     21       H        1.008103        4.941138        0.326824
     22       H        5.240619        0.730051        0.305801



 TOTAL CPU TIME:             3.08 SECONDS

 == MOPAC DONE ==
