 *******************************************************************************
 ** Site#: 14399           For non-commercial use only        Version 13.159M **
 *******************************************************************************
 ** Cite this work as: MOPAC2012, James J. P. Stewart, Stewart Computational  **
 ** Chemistry, Version 13.159M web: HTTP://OpenMOPAC.net  Days remaining:   6 **
 *******************************************************************************
 **                                                                           **
 **                                MOPAC2012                                  **
 **                                                                           **
 *******************************************************************************

                            PM3 CALCULATION RESULTS


 *******************************************************************************
 *  CALCULATION DONE:                                Mon Jun  2 11:10:52 2014  *
 *  PM3      - The PM3 Hamiltonian to be used
 *  PRECISE  - CRITERIA TO BE INCREASED BY 100 TIMES
 *  NOSYM    - POINT-GROUP SYMMETRY SET TO C1
 *  T=       - A TIME OF 172800.0 SECONDS REQUESTED
 *  DUMP=N   - RESTART FILE WRITTEN EVERY  7200.000 SECONDS
 *******************************************************************************
pm3  precise nosym
 InChI=1S/C10H14/c1-2-4-8-7-9-5-3-6-10(8)9/h2-5,8-10H,6-7H2,1H3

   ATOM   CHEMICAL          X               Y               Z
  NUMBER   SYMBOL      (ANGSTROMS)     (ANGSTROMS)     (ANGSTROMS)
 
     1       C         -0.77280000  *  -0.59190000  *  -0.20130000  *
     2       C         -1.50470000  *  -0.41730000  *   1.12510000  *
     3       C          0.15940000  *   0.59930000  *   0.21630000  *
     4       C         -0.53050000  *   0.61650000  *   1.57980000  *
     5       C         -1.78710000  *  -0.30190000  *  -1.31360000  *
     6       C          3.75820000  *  -0.27620000  *  -0.90510000  *
     7       C         -2.85090000  *   0.09590000  *   0.73250000  *
     8       C          1.62450000  *   0.25520000  *   0.23170000  *
     9       C         -3.00310000  *   0.14940000  *  -0.58210000  *
    10       C          2.29980000  *   0.05960000  *  -0.90730000  *
    11       H         -0.26140000  *  -1.58040000  *  -0.29100000  *
    12       H         -1.54570000  *  -1.34250000  *   1.74630000  *
    13       H         -0.03360000  *   1.54570000  *  -0.34370000  *
    14       H          0.09350000  *   0.23440000  *   2.42200000  *
    15       H         -0.97850000  *   1.60710000  *   1.83050000  *
    16       H         -2.02880000  *  -1.22980000  *  -1.88010000  *
    17       H         -1.43060000  *   0.47740000  *  -2.02500000  *
    18       H          4.12340000  *  -0.39740000  *  -1.94970000  *
    19       H          3.93390000  *  -1.23070000  *  -0.35900000  *
    20       H          4.34210000  *   0.53930000  *  -0.42140000  *
    21       H         -3.91890000  *   0.48090000  *  -1.06740000  *
    22       H         -3.62360000  *   0.38800000  *   1.44070000  *
    23       H          2.14800000  *   0.17880000  *   1.18470000  *
    24       H          1.78750000  *   0.14080000  *  -1.86600000  *
 


          CARTESIAN COORDINATES 

    NO.       ATOM         X         Y         Z

     1         C       -0.7728   -0.5919   -0.2013
     2         C       -1.5047   -0.4173    1.1251
     3         C        0.1594    0.5993    0.2163
     4         C       -0.5305    0.6165    1.5798
     5         C       -1.7871   -0.3019   -1.3136
     6         C        3.7582   -0.2762   -0.9051
     7         C       -2.8509    0.0959    0.7325
     8         C        1.6245    0.2552    0.2317
     9         C       -3.0031    0.1494   -0.5821
    10         C        2.2998    0.0596   -0.9073
    11         H       -0.2614   -1.5804   -0.2910
    12         H       -1.5457   -1.3425    1.7463
    13         H       -0.0336    1.5457   -0.3437
    14         H        0.0935    0.2344    2.4220
    15         H       -0.9785    1.6071    1.8305
    16         H       -2.0288   -1.2298   -1.8801
    17         H       -1.4306    0.4774   -2.0250
    18         H        4.1234   -0.3974   -1.9497
    19         H        3.9339   -1.2307   -0.3590
    20         H        4.3421    0.5393   -0.4214
    21         H       -3.9189    0.4809   -1.0674
    22         H       -3.6236    0.3880    1.4407
    23         H        2.1480    0.1788    1.1847
    24         H        1.7875    0.1408   -1.8660

  H: (PM3): J. J. P. STEWART, J. COMP. CHEM. 10, 209 (1989).
  C: (PM3): J. J. P. STEWART, J. COMP. CHEM. 10, 209 (1989).

           Empirical Formula: C10 H14  =    24 atoms



      MOLECULAR POINT GROUP   :   C1  


      RHF CALCULATION, NO. OF DOUBLY OCCUPIED LEVELS =   27

      Geometry optimization using EF

          DIAGONAL MATRIX USED AS START HESSIAN

 CYCLE:     1 TIME:   0.011 TIME LEFT:  2.00D  GRAD.:   105.445 HEAT: 30.92701
 CYCLE:     2 TIME:   0.021 TIME LEFT:  2.00D  GRAD.:    50.061 HEAT: 28.44975
 CYCLE:     3 TIME:   0.015 TIME LEFT:  2.00D  GRAD.:    56.835 HEAT: 27.92727
 CYCLE:     4 TIME:   0.008 TIME LEFT:  2.00D  GRAD.:    27.218 HEAT: 27.09905
 CYCLE:     5 TIME:   0.008 TIME LEFT:  2.00D  GRAD.:    56.755 HEAT: 26.92883
 CYCLE:     6 TIME:   0.008 TIME LEFT:  2.00D  GRAD.:    66.320 HEAT: 26.83994
 CYCLE:     7 TIME:   0.008 TIME LEFT:  2.00D  GRAD.:    54.176 HEAT: 26.68331
 CYCLE:     8 TIME:   0.008 TIME LEFT:  2.00D  GRAD.:    53.403 HEAT: 26.56630
 CYCLE:     9 TIME:   0.015 TIME LEFT:  2.00D  GRAD.:    21.004 HEAT: 25.92382
 CYCLE:    10 TIME:   0.015 TIME LEFT:  2.00D  GRAD.:    17.260 HEAT: 25.85912
 CYCLE:    11 TIME:   0.008 TIME LEFT:  2.00D  GRAD.:    13.835 HEAT: 25.80002
 CYCLE:    12 TIME:   0.015 TIME LEFT:  2.00D  GRAD.:    13.304 HEAT: 25.76924
 CYCLE:    13 TIME:   0.008 TIME LEFT:  2.00D  GRAD.:    11.184 HEAT: 25.74441
 CYCLE:    14 TIME:   0.012 TIME LEFT:  2.00D  GRAD.:    12.501 HEAT: 25.72267
 CYCLE:    15 TIME:   0.008 TIME LEFT:  2.00D  GRAD.:     8.897 HEAT: 25.70181
 CYCLE:    16 TIME:   0.008 TIME LEFT:  2.00D  GRAD.:    12.436 HEAT: 25.69866
 CYCLE:    17 TIME:   0.008 TIME LEFT:  2.00D  GRAD.:    11.417 HEAT: 25.69543
 CYCLE:    18 TIME:   0.012 TIME LEFT:  2.00D  GRAD.:    12.135 HEAT: 25.68941
 CYCLE:    19 TIME:   0.008 TIME LEFT:  2.00D  GRAD.:     8.512 HEAT: 25.66719
 CYCLE:    20 TIME:   0.008 TIME LEFT:  2.00D  GRAD.:     6.908 HEAT: 25.64974
 CYCLE:    21 TIME:   0.008 TIME LEFT:  2.00D  GRAD.:     6.051 HEAT: 25.64565
 CYCLE:    22 TIME:   0.008 TIME LEFT:  2.00D  GRAD.:     5.649 HEAT: 25.63602
 CYCLE:    23 TIME:   0.008 TIME LEFT:  2.00D  GRAD.:     5.022 HEAT: 25.63139
 CYCLE:    24 TIME:   0.008 TIME LEFT:  2.00D  GRAD.:     4.843 HEAT: 25.62272
 CYCLE:    25 TIME:   0.008 TIME LEFT:  2.00D  GRAD.:     6.468 HEAT: 25.61908
 CYCLE:    26 TIME:   0.008 TIME LEFT:  2.00D  GRAD.:     3.533 HEAT: 25.60240
 CYCLE:    27 TIME:   0.008 TIME LEFT:  2.00D  GRAD.:     3.364 HEAT: 25.58944
 CYCLE:    28 TIME:   0.008 TIME LEFT:  2.00D  GRAD.:     3.735 HEAT: 25.57478
 CYCLE:    29 TIME:   0.008 TIME LEFT:  2.00D  GRAD.:     4.225 HEAT: 25.55863
 CYCLE:    30 TIME:   0.008 TIME LEFT:  2.00D  GRAD.:     4.395 HEAT: 25.55446
 CYCLE:    31 TIME:   0.008 TIME LEFT:  2.00D  GRAD.:     2.003 HEAT: 25.54470
 CYCLE:    32 TIME:   0.008 TIME LEFT:  2.00D  GRAD.:     2.198 HEAT: 25.53854
 CYCLE:    33 TIME:   0.008 TIME LEFT:  2.00D  GRAD.:     3.213 HEAT: 25.53266
 CYCLE:    34 TIME:   0.008 TIME LEFT:  2.00D  GRAD.:     3.225 HEAT: 25.52617
 CYCLE:    35 TIME:   0.008 TIME LEFT:  2.00D  GRAD.:     3.077 HEAT: 25.51795
 CYCLE:    36 TIME:   0.008 TIME LEFT:  2.00D  GRAD.:     3.556 HEAT: 25.50880
 CYCLE:    37 TIME:   0.008 TIME LEFT:  2.00D  GRAD.:     2.862 HEAT: 25.50070
 CYCLE:    38 TIME:   0.008 TIME LEFT:  2.00D  GRAD.:     2.059 HEAT: 25.49303
 CYCLE:    39 TIME:   0.008 TIME LEFT:  2.00D  GRAD.:     2.606 HEAT: 25.48732
 CYCLE:    40 TIME:   0.008 TIME LEFT:  2.00D  GRAD.:     1.878 HEAT: 25.48088
 CYCLE:    41 TIME:   0.008 TIME LEFT:  2.00D  GRAD.:     1.459 HEAT: 25.47525
 CYCLE:    42 TIME:   0.008 TIME LEFT:  2.00D  GRAD.:     1.944 HEAT: 25.47054
 CYCLE:    43 TIME:   0.008 TIME LEFT:  2.00D  GRAD.:     2.087 HEAT: 25.46578
 CYCLE:    44 TIME:   0.008 TIME LEFT:  2.00D  GRAD.:     1.779 HEAT: 25.45975
 CYCLE:    45 TIME:   0.008 TIME LEFT:  2.00D  GRAD.:     1.693 HEAT: 25.45316
 CYCLE:    46 TIME:   0.008 TIME LEFT:  2.00D  GRAD.:     1.898 HEAT: 25.44714
 CYCLE:    47 TIME:   0.008 TIME LEFT:  2.00D  GRAD.:     1.761 HEAT: 25.44021
 CYCLE:    48 TIME:   0.008 TIME LEFT:  2.00D  GRAD.:     1.611 HEAT: 25.43423
 CYCLE:    49 TIME:   0.008 TIME LEFT:  2.00D  GRAD.:     1.564 HEAT: 25.42881
 CYCLE:    50 TIME:   0.008 TIME LEFT:  2.00D  GRAD.:     1.649 HEAT: 25.42326
 CYCLE:    51 TIME:   0.008 TIME LEFT:  2.00D  GRAD.:     1.331 HEAT: 25.41827
 CYCLE:    52 TIME:   0.008 TIME LEFT:  2.00D  GRAD.:     1.025 HEAT: 25.41480
 CYCLE:    53 TIME:   0.008 TIME LEFT:  2.00D  GRAD.:     0.995 HEAT: 25.41243
 CYCLE:    54 TIME:   0.008 TIME LEFT:  2.00D  GRAD.:     0.978 HEAT: 25.41034
 CYCLE:    55 TIME:   0.008 TIME LEFT:  2.00D  GRAD.:     0.845 HEAT: 25.40833
 CYCLE:    56 TIME:   0.008 TIME LEFT:  2.00D  GRAD.:     0.679 HEAT: 25.40666
 CYCLE:    57 TIME:   0.008 TIME LEFT:  2.00D  GRAD.:     0.615 HEAT: 25.40554
 CYCLE:    58 TIME:   0.008 TIME LEFT:  2.00D  GRAD.:     0.501 HEAT: 25.40490
 CYCLE:    59 TIME:   0.008 TIME LEFT:  2.00D  GRAD.:     0.458 HEAT: 25.40441
 CYCLE:    60 TIME:   0.008 TIME LEFT:  2.00D  GRAD.:     0.533 HEAT: 25.40376
 CYCLE:    61 TIME:   0.008 TIME LEFT:  2.00D  GRAD.:     0.683 HEAT: 25.40282
 CYCLE:    62 TIME:   0.008 TIME LEFT:  2.00D  GRAD.:     0.842 HEAT: 25.40149
 CYCLE:    63 TIME:   0.008 TIME LEFT:  2.00D  GRAD.:     0.895 HEAT: 25.39982
 CYCLE:    64 TIME:   0.008 TIME LEFT:  2.00D  GRAD.:     0.893 HEAT: 25.39840
 CYCLE:    65 TIME:   0.008 TIME LEFT:  2.00D  GRAD.:     1.445 HEAT: 25.39492
 CYCLE:    66 TIME:   0.008 TIME LEFT:  2.00D  GRAD.:     1.299 HEAT: 25.39285
 CYCLE:    67 TIME:   0.008 TIME LEFT:  2.00D  GRAD.:     2.035 HEAT: 25.38473
 CYCLE:    68 TIME:   0.008 TIME LEFT:  2.00D  GRAD.:     1.604 HEAT: 25.38097
 CYCLE:    69 TIME:   0.008 TIME LEFT:  2.00D  GRAD.:     1.668 HEAT: 25.37239
 CYCLE:    70 TIME:   0.008 TIME LEFT:  2.00D  GRAD.:     2.014 HEAT: 25.34819
 CYCLE:    71 TIME:   0.009 TIME LEFT:  2.00D  GRAD.:     5.441 HEAT: 25.31879
 CYCLE:    72 TIME:   0.015 TIME LEFT:  2.00D  GRAD.:     5.296 HEAT: 25.30550
 CYCLE:    73 TIME:   0.008 TIME LEFT:  2.00D  GRAD.:     4.396 HEAT: 25.26427
 CYCLE:    74 TIME:   0.009 TIME LEFT:  2.00D  GRAD.:     3.619 HEAT: 25.19239
 CYCLE:    75 TIME:   0.008 TIME LEFT:  2.00D  GRAD.:    10.990 HEAT: 25.16607
 CYCLE:    76 TIME:   0.008 TIME LEFT:  2.00D  GRAD.:     5.921 HEAT: 25.09882
 CYCLE:    77 TIME:   0.009 TIME LEFT:  2.00D  GRAD.:     4.773 HEAT: 25.04841
 CYCLE:    78 TIME:   0.013 TIME LEFT:  2.00D  GRAD.:     5.446 HEAT: 24.99108
 CYCLE:    79 TIME:   0.009 TIME LEFT:  2.00D  GRAD.:     5.053 HEAT: 24.95827
 CYCLE:    80 TIME:   0.009 TIME LEFT:  2.00D  GRAD.:     7.066 HEAT: 24.93045
 CYCLE:    81 TIME:   0.009 TIME LEFT:  2.00D  GRAD.:     4.083 HEAT: 24.89381
 CYCLE:    82 TIME:   0.008 TIME LEFT:  2.00D  GRAD.:     3.068 HEAT: 24.85319
 CYCLE:    83 TIME:   0.009 TIME LEFT:  2.00D  GRAD.:     3.479 HEAT: 24.81897
 CYCLE:    84 TIME:   0.009 TIME LEFT:  2.00D  GRAD.:     3.371 HEAT: 24.79337
 CYCLE:    85 TIME:   0.008 TIME LEFT:  2.00D  GRAD.:     2.470 HEAT: 24.77177
 CYCLE:    86 TIME:   0.009 TIME LEFT:  2.00D  GRAD.:     3.577 HEAT: 24.75669
 CYCLE:    87 TIME:   0.009 TIME LEFT:  2.00D  GRAD.:     3.023 HEAT: 24.74584
 CYCLE:    88 TIME:   0.009 TIME LEFT:  2.00D  GRAD.:     2.637 HEAT: 24.73141
 CYCLE:    89 TIME:   0.009 TIME LEFT:  2.00D  GRAD.:     3.423 HEAT: 24.70622
 CYCLE:    90 TIME:   0.008 TIME LEFT:  2.00D  GRAD.:     3.328 HEAT: 24.68478
 CYCLE:    91 TIME:   0.008 TIME LEFT:  2.00D  GRAD.:     3.357 HEAT: 24.66782
 CYCLE:    92 TIME:   0.009 TIME LEFT:  2.00D  GRAD.:     2.611 HEAT: 24.65470
 CYCLE:    93 TIME:   0.009 TIME LEFT:  2.00D  GRAD.:     2.774 HEAT: 24.64042
 CYCLE:    94 TIME:   0.008 TIME LEFT:  2.00D  GRAD.:     2.774 HEAT: 24.62569
 CYCLE:    95 TIME:   0.008 TIME LEFT:  2.00D  GRAD.:     2.977 HEAT: 24.61567
 CYCLE:    96 TIME:   0.008 TIME LEFT:  2.00D  GRAD.:     3.478 HEAT: 24.61234
 CYCLE:    97 TIME:   0.008 TIME LEFT:  2.00D  GRAD.:     1.580 HEAT: 24.60587
 CYCLE:    98 TIME:   0.008 TIME LEFT:  2.00D  GRAD.:     1.689 HEAT: 24.60310
 CYCLE:    99 TIME:   0.008 TIME LEFT:  2.00D  GRAD.:     1.292 HEAT: 24.59937
 CYCLE:   100 TIME:   0.008 TIME LEFT:  2.00D  GRAD.:     1.869 HEAT: 24.59212
 CYCLE:   101 TIME:   0.008 TIME LEFT:  2.00D  GRAD.:     1.702 HEAT: 24.58794
 CYCLE:   102 TIME:   0.008 TIME LEFT:  2.00D  GRAD.:     1.550 HEAT: 24.58298
 CYCLE:   103 TIME:   0.008 TIME LEFT:  2.00D  GRAD.:     1.373 HEAT: 24.57990
 CYCLE:   104 TIME:   0.008 TIME LEFT:  2.00D  GRAD.:     1.265 HEAT: 24.57736
 CYCLE:   105 TIME:   0.008 TIME LEFT:  2.00D  GRAD.:     1.194 HEAT: 24.57469
 CYCLE:   106 TIME:   0.008 TIME LEFT:  2.00D  GRAD.:     1.214 HEAT: 24.57056
 CYCLE:   107 TIME:   0.008 TIME LEFT:  2.00D  GRAD.:     1.099 HEAT: 24.56793
 CYCLE:   108 TIME:   0.008 TIME LEFT:  2.00D  GRAD.:     1.236 HEAT: 24.56401
 CYCLE:   109 TIME:   0.008 TIME LEFT:  2.00D  GRAD.:     0.921 HEAT: 24.56285
 CYCLE:   110 TIME:   0.008 TIME LEFT:  2.00D  GRAD.:     0.782 HEAT: 24.56067
 CYCLE:   111 TIME:   0.012 TIME LEFT:  2.00D  GRAD.:     0.685 HEAT: 24.55998
 CYCLE:   112 TIME:   0.008 TIME LEFT:  2.00D  GRAD.:     0.685 HEAT: 24.55866
 CYCLE:   113 TIME:   0.008 TIME LEFT:  2.00D  GRAD.:     0.597 HEAT: 24.55818
 CYCLE:   114 TIME:   0.008 TIME LEFT:  2.00D  GRAD.:     0.525 HEAT: 24.55714
 CYCLE:   115 TIME:   0.008 TIME LEFT:  2.00D  GRAD.:     0.430 HEAT: 24.55674
 CYCLE:   116 TIME:   0.008 TIME LEFT:  2.00D  GRAD.:     0.643 HEAT: 24.55579
 CYCLE:   117 TIME:   0.008 TIME LEFT:  2.00D  GRAD.:     0.599 HEAT: 24.55536
 CYCLE:   118 TIME:   0.008 TIME LEFT:  2.00D  GRAD.:     0.662 HEAT: 24.55344
 CYCLE:   119 TIME:   0.008 TIME LEFT:  2.00D  GRAD.:     0.784 HEAT: 24.55216
 CYCLE:   120 TIME:   0.009 TIME LEFT:  2.00D  GRAD.:     0.866 HEAT: 24.54998
 CYCLE:   121 TIME:   0.009 TIME LEFT:  2.00D  GRAD.:     0.826 HEAT: 24.54904
 CYCLE:   122 TIME:   0.008 TIME LEFT:  2.00D  GRAD.:     1.407 HEAT: 24.54497
 CYCLE:   123 TIME:   0.008 TIME LEFT:  2.00D  GRAD.:     1.093 HEAT: 24.54305
 CYCLE:   124 TIME:   0.008 TIME LEFT:  2.00D  GRAD.:     1.712 HEAT: 24.53422
 CYCLE:   125 TIME:   0.008 TIME LEFT:  2.00D  GRAD.:     1.643 HEAT: 24.53035
 CYCLE:   126 TIME:   0.008 TIME LEFT:  2.00D  GRAD.:     7.164 HEAT: 24.52696
 CYCLE:   127 TIME:   0.008 TIME LEFT:  2.00D  GRAD.:     3.116 HEAT: 24.51631
 CYCLE:   128 TIME:   0.015 TIME LEFT:  2.00D  GRAD.:     2.805 HEAT: 24.51047
 CYCLE:   129 TIME:   0.008 TIME LEFT:  2.00D  GRAD.:     1.538 HEAT: 24.50132
 CYCLE:   130 TIME:   0.008 TIME LEFT:  2.00D  GRAD.:     3.466 HEAT: 24.49002
 CYCLE:   131 TIME:   0.008 TIME LEFT:  2.00D  GRAD.:     3.609 HEAT: 24.48065
 CYCLE:   132 TIME:   0.008 TIME LEFT:  2.00D  GRAD.:     2.113 HEAT: 24.47067
 CYCLE:   133 TIME:   0.008 TIME LEFT:  2.00D  GRAD.:     4.023 HEAT: 24.46407
 CYCLE:   134 TIME:   0.008 TIME LEFT:  2.00D  GRAD.:     2.018 HEAT: 24.45766
 CYCLE:   135 TIME:   0.008 TIME LEFT:  2.00D  GRAD.:     1.882 HEAT: 24.44912
 CYCLE:   136 TIME:   0.008 TIME LEFT:  2.00D  GRAD.:     3.531 HEAT: 24.44056
 CYCLE:   137 TIME:   0.008 TIME LEFT:  2.00D  GRAD.:     3.230 HEAT: 24.43407
 CYCLE:   138 TIME:   0.008 TIME LEFT:  2.00D  GRAD.:     2.197 HEAT: 24.43145
 CYCLE:   139 TIME:   0.008 TIME LEFT:  2.00D  GRAD.:     1.707 HEAT: 24.42516
 CYCLE:   140 TIME:   0.008 TIME LEFT:  2.00D  GRAD.:     1.933 HEAT: 24.42236
 CYCLE:   141 TIME:   0.008 TIME LEFT:  2.00D  GRAD.:     1.731 HEAT: 24.41959
 CYCLE:   142 TIME:   0.009 TIME LEFT:  2.00D  GRAD.:     1.295 HEAT: 24.41632
 CYCLE:   143 TIME:   0.009 TIME LEFT:  2.00D  GRAD.:     3.281 HEAT: 24.41821
 CYCLE:   144 TIME:   0.009 TIME LEFT:  2.00D  GRAD.:     1.424 HEAT: 24.41442
 CYCLE:   145 TIME:   0.008 TIME LEFT:  2.00D  GRAD.:     0.909 HEAT: 24.41335
 CYCLE:   146 TIME:   0.008 TIME LEFT:  2.00D  GRAD.:     0.785 HEAT: 24.41223
 CYCLE:   147 TIME:   0.008 TIME LEFT:  2.00D  GRAD.:     0.876 HEAT: 24.41139
 CYCLE:   148 TIME:   0.012 TIME LEFT:  2.00D  GRAD.:     0.554 HEAT: 24.41047
 CYCLE:   149 TIME:   0.008 TIME LEFT:  2.00D  GRAD.:     0.737 HEAT: 24.41001
 CYCLE:   150 TIME:   0.008 TIME LEFT:  2.00D  GRAD.:     0.830 HEAT: 24.40926
 CYCLE:   151 TIME:   0.008 TIME LEFT:  2.00D  GRAD.:     0.961 HEAT: 24.40863
 CYCLE:   152 TIME:   0.008 TIME LEFT:  2.00D  GRAD.:     0.735 HEAT: 24.40815
 CYCLE:   153 TIME:   0.008 TIME LEFT:  2.00D  GRAD.:     0.595 HEAT: 24.40759
 CYCLE:   154 TIME:   0.008 TIME LEFT:  2.00D  GRAD.:     0.829 HEAT: 24.40671
 CYCLE:   155 TIME:   0.009 TIME LEFT:  2.00D  GRAD.:     0.760 HEAT: 24.40581
 CYCLE:   156 TIME:   0.009 TIME LEFT:  2.00D  GRAD.:     0.892 HEAT: 24.40514
 CYCLE:   157 TIME:   0.008 TIME LEFT:  2.00D  GRAD.:     0.451 HEAT: 24.40462
 CYCLE:   158 TIME:   0.008 TIME LEFT:  2.00D  GRAD.:     0.406 HEAT: 24.40446
 CYCLE:   159 TIME:   0.008 TIME LEFT:  2.00D  GRAD.:     0.230 HEAT: 24.40436
 CYCLE:   160 TIME:   0.008 TIME LEFT:  2.00D  GRAD.:     0.139 HEAT: 24.40430
 CYCLE:   161 TIME:   0.008 TIME LEFT:  2.00D  GRAD.:     0.129 HEAT: 24.40425
 CYCLE:   162 TIME:   0.008 TIME LEFT:  2.00D  GRAD.:     0.120 HEAT: 24.40422
 CYCLE:   163 TIME:   0.008 TIME LEFT:  2.00D  GRAD.:     0.075 HEAT: 24.40422
 CYCLE:   164 TIME:   0.008 TIME LEFT:  2.00D  GRAD.:     0.085 HEAT: 24.40422
 CYCLE:   165 TIME:   0.008 TIME LEFT:  2.00D  GRAD.:     0.044 HEAT: 24.40421

     RMS GRADIENT =  0.04393  IS LESS THAN CUTOFF =  0.05000



 -------------------------------------------------------------------------------
pm3  precise nosym
 InChI=1S/C10H14/c1-2-4-8-7-9-5-3-6-10(8)9/h2-5,8-10H,6-7H2,1H3



     GEOMETRY OPTIMISED USING EIGENVECTOR FOLLOWING (EF).     
     SCF FIELD WAS ACHIEVED                                   


                              PM3 CALCULATION
                                                       MOPAC2012 (Version: 13.159M)
                                                       Mon Jun  2 11:10:53 2014
                                                       No. of days left =   6




          FINAL HEAT OF FORMATION =         24.40421 KCAL/MOL =     102.10721 KJ/MOL


          TOTAL ENERGY            =      -1400.00339 EV
          ELECTRONIC ENERGY       =      -7785.83035 EV  POINT GROUP:     C1  
          CORE-CORE REPULSION     =       6385.82696 EV
          COSMO AREA              =        190.59 SQUARE ANGSTROMS
          COSMO VOLUME            =        191.06 CUBIC ANGSTROMS

          GRADIENT NORM           =          0.04393
          IONIZATION POTENTIAL    =          9.618854 EV
          HOMO LUMO ENERGIES (EV) =         -9.619  1.011
          NO. OF FILLED LEVELS    =         27
          MOLECULAR WEIGHT        =        134.221

          MOLECULAR DIMENSIONS (Angstroms)

            Atom       Atom       Distance
            H    18    H    22     8.52430
            H    16    H    14     5.07985
            H    12    H    24     3.30224


          SCF CALCULATIONS        =        174
          COMPUTATION TIME        =          1.424 SECONDS




   ATOM   CHEMICAL          X               Y               Z
  NUMBER   SYMBOL      (ANGSTROMS)     (ANGSTROMS)     (ANGSTROMS)
 
     1       C         -0.91427332  *  -0.70081369  *  -0.24669075  *
     2       C         -1.51964439  *  -0.36652196  *   1.15609318  *
     3       C          0.16974224  *   0.39327869  *  -0.02746120  *
     4       C         -0.42063561  *   0.69508864  *   1.37663205  *
     5       C         -2.00401451  *  -0.37038080  *  -1.26770853  *
     6       C          3.92385751  *  -0.13672085  *  -0.71498498  *
     7       C         -2.87992860  *   0.17530194  *   0.86206154  *
     8       C          1.55588170  *  -0.13469304  *   0.00145013  *
     9       C         -3.14281105  *   0.16463238  *  -0.45147560  *
    10       C          2.53854437  *   0.38222199  *  -0.73828751  *
    11       H         -0.50607815  *  -1.72072900  *  -0.36981878  *
    12       H         -1.54114888  *  -1.18337335  *   1.90020955  *
    13       H          0.07781097  *   1.24862777  *  -0.73163257  *
    14       H          0.25806726  *   0.47746909  *   2.21525913  *
    15       H         -0.78858069  *   1.72334303  *   1.50736669  *
    16       H         -2.32009818  *  -1.26394363  *  -1.83676994  *
    17       H         -1.66729316  *   0.37078609  *  -2.01663859  *
    18       H          4.22654396  *  -0.47051611  *  -1.71670704  *
    19       H          4.05272652  *  -0.98535303  *  -0.02995981  *
    20       H          4.62415567  *   0.65003442  *  -0.40346670  *
    21       H         -4.06513046  *   0.49615806  *  -0.92794458  *
    22       H         -3.53834497  *   0.52250001  *   1.65733334  *
    23       H          1.73622777  *  -0.98421679  *   0.67310628  *
    24       H          2.35560308  *   1.23185790  *  -1.40839986  *

           Empirical Formula: C10 H14  =    24 atoms



      MOLECULAR POINT GROUP   :   C1  


                  EIGENVALUES  
 -42.30682 -35.84636 -32.12009 -28.80142 -26.46970 -23.77094 -21.89356 -19.86150
 -18.86857 -17.96880 -17.61907 -16.51091 -15.57664 -14.61268 -14.44770 -14.28579
 -14.15678 -13.37362 -13.16542 -12.79853 -12.54004 -12.32184 -12.01230 -11.61605
 -11.36442  -9.74011  -9.61885   1.01139   1.10046   3.16593   3.39164   3.42987
   3.60072   3.62054   3.65264   3.89735   3.93519   3.99079   4.07261   4.20659
   4.22906   4.31125   4.31811   4.47209   4.50884   4.55133   4.77706   4.82639
   5.17238   5.37351   5.67023   5.84087   5.98800   6.04091


              NET ATOMIC CHARGES AND DIPOLE CONTRIBUTIONS

  ATOM NO.   TYPE          CHARGE      No. of ELECS.   s-Pop       p-Pop       
    1          C          -0.096686        4.0967     1.20127     2.89541
    2          C          -0.066914        4.0669     1.18573     2.88118
    3          C          -0.054590        4.0546     1.18130     2.87329
    4          C          -0.095267        4.0953     1.17481     2.92045
    5          C          -0.057341        4.0573     1.15307     2.90427
    6          C          -0.075040        4.0750     1.12531     2.94973
    7          C          -0.146219        4.1462     1.19998     2.94624
    8          C          -0.146421        4.1464     1.19516     2.95126
    9          C          -0.148845        4.1488     1.20450     2.94435
   10          C          -0.141408        4.1414     1.19401     2.94740
   11          H           0.081482        0.9185     0.91852
   12          H           0.080346        0.9197     0.91965
   13          H           0.077330        0.9227     0.92267
   14          H           0.059203        0.9408     0.94080
   15          H           0.060569        0.9394     0.93943
   16          H           0.055785        0.9442     0.94421
   17          H           0.061333        0.9387     0.93867
   18          H           0.044062        0.9559     0.95594
   19          H           0.041080        0.9589     0.95892
   20          H           0.044126        0.9559     0.95587
   21          H           0.108819        0.8912     0.89118
   22          H           0.112572        0.8874     0.88743
   23          H           0.103558        0.8964     0.89644
   24          H           0.098466        0.9015     0.90153
 DIPOLE           X         Y         Z       TOTAL
 POINT-CHG.     0.231    -0.012    -0.131     0.266
 HYBRID        -0.008     0.022    -0.009     0.025
 SUM            0.223     0.010    -0.140     0.263


          ATOMIC ORBITAL ELECTRON POPULATIONS

    Atom      s        px        py        pz   
    1  C   1.20127   0.95618   0.98692   0.95232
    2  C   1.18573   0.92946   0.97905   0.97267
    3  C   1.18130   0.92221   0.97556   0.97552
    4  C   1.17481   0.97018   0.98698   0.96329
    5  C   1.15307   0.94050   1.00014   0.96362
    6  C   1.12531   0.94495   0.99780   1.00698
    7  C   1.19998   0.97096   1.00899   0.96628
    8  C   1.19516   0.94968   1.00122   1.00036
    9  C   1.20450   0.98231   1.00475   0.95728
   10  C   1.19401   0.95666   0.99694   0.99380
   11  H   0.91852
   12  H   0.91965
   13  H   0.92267
   14  H   0.94080
   15  H   0.93943
   16  H   0.94421
   17  H   0.93867
   18  H   0.95594
   19  H   0.95892
   20  H   0.95587
   21  H   0.89118
   22  H   0.88743
   23  H   0.89644
   24  H   0.90153
 *******************************************************************************
 ** Site#: 14399           For non-commercial use only        Version 13.159M **
 *******************************************************************************
 ** Cite this work as: MOPAC2012, James J. P. Stewart, Stewart Computational  **
 ** Chemistry, Version 13.159M web: HTTP://OpenMOPAC.net  Days remaining:   6 **
 *******************************************************************************
 **                                                                           **
 **                                MOPAC2012                                  **
 **                                                                           **
 *******************************************************************************

                            PM3 CALCULATION RESULTS


 *******************************************************************************
 *  CALCULATION DONE:                                Mon Jun  2 11:10:53 2014  *
 *  PM3      - The PM3 Hamiltonian to be used
 *  OLDGEO   - PREVIOUS GEOMETRY TO BE USED
 *  PRECISE  - CRITERIA TO BE INCREASED BY 100 TIMES
 *  NOSYM    - POINT-GROUP SYMMETRY SET TO C1
 *  T=       - A TIME OF 172800.0 SECONDS REQUESTED
 *  DUMP=N   - RESTART FILE WRITTEN EVERY  7200.000 SECONDS
 *  THERMO   - THERMODYNAMIC QUANTITIES TO BE CALCULATED
 *******************************************************************************
oldgeo thermo nosym precise  pm3

   ATOM   CHEMICAL          X               Y               Z
  NUMBER   SYMBOL      (ANGSTROMS)     (ANGSTROMS)     (ANGSTROMS)
 
     1       C         -0.91427332  *  -0.70081369  *  -0.24669075  *
     2       C         -1.51964439  *  -0.36652196  *   1.15609318  *
     3       C          0.16974224  *   0.39327869  *  -0.02746120  *
     4       C         -0.42063561  *   0.69508864  *   1.37663205  *
     5       C         -2.00401451  *  -0.37038080  *  -1.26770853  *
     6       C          3.92385751  *  -0.13672085  *  -0.71498498  *
     7       C         -2.87992860  *   0.17530194  *   0.86206154  *
     8       C          1.55588170  *  -0.13469304  *   0.00145013  *
     9       C         -3.14281105  *   0.16463238  *  -0.45147560  *
    10       C          2.53854437  *   0.38222199  *  -0.73828751  *
    11       H         -0.50607815  *  -1.72072900  *  -0.36981878  *
    12       H         -1.54114888  *  -1.18337335  *   1.90020955  *
    13       H          0.07781097  *   1.24862777  *  -0.73163257  *
    14       H          0.25806726  *   0.47746909  *   2.21525913  *
    15       H         -0.78858069  *   1.72334303  *   1.50736669  *
    16       H         -2.32009818  *  -1.26394363  *  -1.83676994  *
    17       H         -1.66729316  *   0.37078609  *  -2.01663859  *
    18       H          4.22654396  *  -0.47051611  *  -1.71670704  *
    19       H          4.05272652  *  -0.98535303  *  -0.02995981  *
    20       H          4.62415567  *   0.65003442  *  -0.40346670  *
    21       H         -4.06513046  *   0.49615806  *  -0.92794458  *
    22       H         -3.53834497  *   0.52250001  *   1.65733334  *
    23       H          1.73622777  *  -0.98421679  *   0.67310628  *
    24       H          2.35560308  *   1.23185790  *  -1.40839986  *
 


          CARTESIAN COORDINATES 

    NO.       ATOM         X         Y         Z

     1         C       -0.9143   -0.7008   -0.2467
     2         C       -1.5196   -0.3665    1.1561
     3         C        0.1697    0.3933   -0.0275
     4         C       -0.4206    0.6951    1.3766
     5         C       -2.0040   -0.3704   -1.2677
     6         C        3.9239   -0.1367   -0.7150
     7         C       -2.8799    0.1753    0.8621
     8         C        1.5559   -0.1347    0.0015
     9         C       -3.1428    0.1646   -0.4515
    10         C        2.5385    0.3822   -0.7383
    11         H       -0.5061   -1.7207   -0.3698
    12         H       -1.5411   -1.1834    1.9002
    13         H        0.0778    1.2486   -0.7316
    14         H        0.2581    0.4775    2.2153
    15         H       -0.7886    1.7233    1.5074
    16         H       -2.3201   -1.2639   -1.8368
    17         H       -1.6673    0.3708   -2.0166
    18         H        4.2265   -0.4705   -1.7167
    19         H        4.0527   -0.9854   -0.0300
    20         H        4.6242    0.6500   -0.4035
    21         H       -4.0651    0.4962   -0.9279
    22         H       -3.5383    0.5225    1.6573
    23         H        1.7362   -0.9842    0.6731
    24         H        2.3556    1.2319   -1.4084

  H: (PM3): J. J. P. STEWART, J. COMP. CHEM. 10, 209 (1989).
  C: (PM3): J. J. P. STEWART, J. COMP. CHEM. 10, 209 (1989).

           Empirical Formula: C10 H14  =    24 atoms



      MOLECULAR POINT GROUP   :   C1  


      RHF CALCULATION, NO. OF DOUBLY OCCUPIED LEVELS =   27



          HEAT OF FORMATION =      24.404210 KCALS/MOLE


          INTERNAL COORDINATE DERIVATIVES

   NUMBER  ATOM       BOND         ANGLE      DIHEDRAL

     1       C     -0.000845    -0.000379    -0.001677
     2       C      0.000741    -0.001334    -0.001716
     3       C     -0.000226    -0.001721     0.000252
     4       C      0.000268    -0.000011     0.002662
     5       C      0.000888    -0.005187    -0.000209
     6       C      0.019520    -0.000884    -0.001449
     7       C      0.000404     0.002952    -0.001306
     8       C     -0.010849    -0.003679     0.003128
     9       C     -0.004680     0.001462    -0.000988
    10       C      0.007390    -0.015045    -0.000522
    11       H     -0.001381    -0.001112     0.000638
    12       H     -0.000068    -0.000604     0.001834
    13       H      0.001028     0.003179    -0.000163
    14       H     -0.001811     0.004810    -0.002403
    15       H      0.000814    -0.002712     0.000145
    16       H     -0.000041     0.006043     0.001957
    17       H      0.000104    -0.004097    -0.000487
    18       H     -0.018686    -0.005950     0.001032
    19       H     -0.001391    -0.005564    -0.004294
    20       H      0.004195     0.005811     0.008725
    21       H      0.000302     0.000471     0.001196
    22       H     -0.002530     0.003571    -0.001520
    23       H      0.004065     0.011353    -0.005003
    24       H      0.002791     0.008627     0.000169


          GRADIENT NORM =   0.04295


          TIME FOR SCF CALCULATION =    0.01

          TIME FOR DERIVATIVES     =    0.01

          MOLECULAR WEIGHT =  134.22



          ROTATIONAL CONSTANTS IN CM(-1)

          A =    0.12281675   B =    0.02282803   C =    0.02076601



           PRINCIPAL MOMENTS OF INERTIA IN UNITS OF 10**(-40)*GRAM-CM**2

          A =      227.9231   B =     1226.2455   C =     1348.0092


          ORIENTATION OF MOLECULE IN FORCE CALCULATION

    NO.       ATOM         X         Y         Z

     1          C      -0.0901   -1.0161    0.0318
     2          C       1.4739   -1.0161    0.0318
     3          C      -0.0792    0.5395    0.0318
     4          C       1.4732    0.5274    0.0002
     5          C      -0.5134   -1.6840    1.3410
     6          C      -2.2622    2.7011   -2.2938
     7          C       1.8525   -1.6270    1.3410
     8          C      -0.7026    1.1425   -1.1718
     9          C       0.7738   -1.9953    2.0449
    10          C      -1.6360    2.0931   -1.0992
    11          H      -0.5765   -1.4629   -0.8546
    12          H       1.9751   -1.5042   -0.8237
    13          H      -0.4924    0.9807    0.9649
    14          H       1.9162    0.9624   -0.9086
    15          H       1.9527    1.0092    0.8649
    16          H      -1.0925   -2.6088    1.1633
    17          H      -1.1571   -1.0291    1.9578
    18          H      -3.3492    2.5438   -2.2806
    19          H      -1.8791    2.2880   -3.2364
    20          H      -2.0857    3.7851   -2.3110
    21          H       0.7743   -2.4719    3.0249
    22          H       2.8949   -1.7369    1.6375
    23          H      -0.3516    0.7629   -2.1403
    24          H      -1.9846    2.4712   -0.1297


    FIRST DERIVATIVES WILL BE USED IN THE CALCULATION OF SECOND DERIVATIVES

          ESTIMATED TIME TO COMPLETE CALCULATION =        3.33 SECONDS

    FOR POINT-GROUP C1   THERE ARE   1 UNIQUE SYMMETRY FUNCTIONS.

 STEP:   1 TIME =     0.04 SECS, INTEGRAL =      0.04 TIME LEFT: 172799.95
 STEP:   2 TIME =     0.04 SECS, INTEGRAL =      0.08 TIME LEFT: 172799.91
 STEP:   3 TIME =     0.04 SECS, INTEGRAL =      0.11 TIME LEFT: 172799.88
 STEP:   4 TIME =     0.04 SECS, INTEGRAL =      0.15 TIME LEFT: 172799.84
 STEP:   5 TIME =     0.04 SECS, INTEGRAL =      0.18 TIME LEFT: 172799.80
 STEP:   6 TIME =     0.04 SECS, INTEGRAL =      0.22 TIME LEFT: 172799.77
 STEP:   7 TIME =     0.04 SECS, INTEGRAL =      0.26 TIME LEFT: 172799.73
 STEP:   8 TIME =     0.04 SECS, INTEGRAL =      0.29 TIME LEFT: 172799.70
 STEP:   9 TIME =     0.04 SECS, INTEGRAL =      0.33 TIME LEFT: 172799.66
 STEP:  10 TIME =     0.04 SECS, INTEGRAL =      0.37 TIME LEFT: 172799.62
 STEP:  11 TIME =     0.04 SECS, INTEGRAL =      0.41 TIME LEFT: 172799.58
 STEP:  12 TIME =     0.03 SECS, INTEGRAL =      0.44 TIME LEFT: 172799.55
 STEP:  13 TIME =     0.04 SECS, INTEGRAL =      0.48 TIME LEFT: 172799.51
 STEP:  14 TIME =     0.04 SECS, INTEGRAL =      0.51 TIME LEFT: 172799.48
 STEP:  15 TIME =     0.04 SECS, INTEGRAL =      0.55 TIME LEFT: 172799.44
 STEP:  16 TIME =     0.04 SECS, INTEGRAL =      0.58 TIME LEFT: 172799.41
 STEP:  17 TIME =     0.04 SECS, INTEGRAL =      0.62 TIME LEFT: 172799.37
 STEP:  18 TIME =     0.04 SECS, INTEGRAL =      0.65 TIME LEFT: 172799.33
 STEP:  19 TIME =     0.05 SECS, INTEGRAL =      0.70 TIME LEFT: 172799.29
 STEP:  20 TIME =     0.05 SECS, INTEGRAL =      0.75 TIME LEFT: 172799.24
 STEP:  21 TIME =     0.04 SECS, INTEGRAL =      0.79 TIME LEFT: 172799.20
 STEP:  22 TIME =     0.04 SECS, INTEGRAL =      0.83 TIME LEFT: 172799.16
 STEP:  23 TIME =     0.04 SECS, INTEGRAL =      0.86 TIME LEFT: 172799.12
 STEP:  24 TIME =     0.04 SECS, INTEGRAL =      0.90 TIME LEFT: 172799.09
 STEP:  25 TIME =     0.03 SECS, INTEGRAL =      0.94 TIME LEFT: 172799.05
 STEP:  26 TIME =     0.04 SECS, INTEGRAL =      0.97 TIME LEFT: 172799.02
 STEP:  27 TIME =     0.04 SECS, INTEGRAL =      1.01 TIME LEFT: 172798.98
 STEP:  28 TIME =     0.04 SECS, INTEGRAL =      1.05 TIME LEFT: 172798.94
 STEP:  29 TIME =     0.04 SECS, INTEGRAL =      1.08 TIME LEFT: 172798.91
 STEP:  30 TIME =     0.04 SECS, INTEGRAL =      1.12 TIME LEFT: 172798.87
 STEP:  31 TIME =     0.04 SECS, INTEGRAL =      1.16 TIME LEFT: 172798.83
 STEP:  32 TIME =     0.04 SECS, INTEGRAL =      1.19 TIME LEFT: 172798.79
 STEP:  33 TIME =     0.04 SECS, INTEGRAL =      1.23 TIME LEFT: 172798.76
 STEP:  34 TIME =     0.04 SECS, INTEGRAL =      1.27 TIME LEFT: 172798.72
 STEP:  35 TIME =     0.04 SECS, INTEGRAL =      1.31 TIME LEFT: 172798.68
 STEP:  36 TIME =     0.04 SECS, INTEGRAL =      1.35 TIME LEFT: 172798.64
 STEP:  37 TIME =     0.04 SECS, INTEGRAL =      1.38 TIME LEFT: 172798.60
 STEP:  38 TIME =     0.04 SECS, INTEGRAL =      1.42 TIME LEFT: 172798.57
 STEP:  39 TIME =     0.04 SECS, INTEGRAL =      1.46 TIME LEFT: 172798.53
 STEP:  40 TIME =     0.04 SECS, INTEGRAL =      1.50 TIME LEFT: 172798.49
 STEP:  41 TIME =     0.04 SECS, INTEGRAL =      1.53 TIME LEFT: 172798.46
 STEP:  42 TIME =     0.04 SECS, INTEGRAL =      1.57 TIME LEFT: 172798.42
 STEP:  43 TIME =     0.04 SECS, INTEGRAL =      1.61 TIME LEFT: 172798.38
 STEP:  44 TIME =     0.04 SECS, INTEGRAL =      1.64 TIME LEFT: 172798.35
 STEP:  45 TIME =     0.04 SECS, INTEGRAL =      1.68 TIME LEFT: 172798.31
 STEP:  46 TIME =     0.04 SECS, INTEGRAL =      1.71 TIME LEFT: 172798.28
 STEP:  47 TIME =     0.03 SECS, INTEGRAL =      1.75 TIME LEFT: 172798.24
 STEP:  48 TIME =     0.04 SECS, INTEGRAL =      1.78 TIME LEFT: 172798.20
 STEP:  49 TIME =     0.04 SECS, INTEGRAL =      1.82 TIME LEFT: 172798.17
 STEP:  50 TIME =     0.04 SECS, INTEGRAL =      1.86 TIME LEFT: 172798.13
 STEP:  51 TIME =     0.04 SECS, INTEGRAL =      1.89 TIME LEFT: 172798.10
 STEP:  52 TIME =     0.03 SECS, INTEGRAL =      1.93 TIME LEFT: 172798.06
 STEP:  53 TIME =     0.04 SECS, INTEGRAL =      1.96 TIME LEFT: 172798.03
 STEP:  54 TIME =     0.04 SECS, INTEGRAL =      2.00 TIME LEFT: 172797.99
 STEP:  55 TIME =     0.04 SECS, INTEGRAL =      2.04 TIME LEFT: 172797.95
 STEP:  56 TIME =     0.04 SECS, INTEGRAL =      2.07 TIME LEFT: 172797.92
 STEP:  57 TIME =     0.04 SECS, INTEGRAL =      2.11 TIME LEFT: 172797.88
 STEP:  58 TIME =     0.04 SECS, INTEGRAL =      2.14 TIME LEFT: 172797.84
 STEP:  59 TIME =     0.03 SECS, INTEGRAL =      2.18 TIME LEFT: 172797.81
 STEP:  60 TIME =     0.04 SECS, INTEGRAL =      2.22 TIME LEFT: 172797.77
 STEP:  61 TIME =     0.04 SECS, INTEGRAL =      2.25 TIME LEFT: 172797.74
 STEP:  62 TIME =     0.04 SECS, INTEGRAL =      2.29 TIME LEFT: 172797.70
 STEP:  63 TIME =     0.04 SECS, INTEGRAL =      2.32 TIME LEFT: 172797.66
 STEP:  64 TIME =     0.03 SECS, INTEGRAL =      2.36 TIME LEFT: 172797.63
 STEP:  65 TIME =     0.04 SECS, INTEGRAL =      2.40 TIME LEFT: 172797.59
 STEP:  66 TIME =     0.04 SECS, INTEGRAL =      2.43 TIME LEFT: 172797.56
 STEP:  67 TIME =     0.04 SECS, INTEGRAL =      2.47 TIME LEFT: 172797.52
 STEP:  68 TIME =     0.04 SECS, INTEGRAL =      2.51 TIME LEFT: 172797.48
 STEP:  69 TIME =     0.03 SECS, INTEGRAL =      2.54 TIME LEFT: 172797.45
 STEP:  70 TIME =     0.04 SECS, INTEGRAL =      2.58 TIME LEFT: 172797.41
 STEP:  71 TIME =     0.04 SECS, INTEGRAL =      2.62 TIME LEFT: 172797.37
 STEP:  72 TIME =     0.03 SECS, INTEGRAL =      2.65 TIME LEFT: 172797.34

(To convert to Hartree/Bohr^2, multiply by (10^(-21) x N x a0^2)/(4.184 x 627.51) = 0.0642)


           FORCE MATRIX IN MILLIDYNES/ANGSTROM


                  C  1       C  2       C  3       C  4       C  5       C  6
 ------------------------------------------------------------------------------
     C    1  14.362603
     C    2   3.007532  14.921088
     C    3   3.194044   1.780010  14.809709
     C    4   1.778087   3.541446   3.314358  14.291724
     C    5   3.887927   0.703822   0.502652   0.046202  14.681833
     C    6   0.018566   0.001958   0.144593   0.018758   0.002586  14.719859
     C    7   0.836073   4.757328   0.046419   0.560419   1.124319   0.001072
     C    8   0.594091   0.042387   5.059740   0.593002   0.034788   0.848003
     C    9   0.903951   1.186203   0.029486   0.043465   4.575500   0.000974
     C   10   0.033363   0.004097   0.850300   0.033051   0.004476   5.267192
     H   11   4.578718   0.419092   0.434440   0.027231   0.424394   0.001106
     H   12   0.409211   4.567965   0.028696   0.429479   0.030751   0.000292
     H   13   0.432836   0.026479   4.384105   0.425126   0.031503   0.002010
     H   14   0.027395   0.445172   0.452974   4.686622   0.001646   0.001079
     H   15   0.030169   0.452062   0.442771   4.712416   0.003491   0.002265
     H   16   0.438052   0.023179   0.033005   0.005454   4.521928   0.000462
     H   17   0.443718   0.034202   0.033285   0.002057   4.493654   0.000286
     H   18   0.003039   0.000522   0.019423   0.002087   0.000699   4.706610
     H   19   0.000686   0.000245   0.002184   0.000672   0.000328   4.724507
     H   20   0.002072   0.000388   0.019528   0.003129   0.000303   4.706318
     H   21   0.042868   0.114171   0.003138   0.016961   0.410941   0.000322
     H   22   0.041051   0.415998   0.002592   0.005900   0.114620   0.000405
     H   23   0.019070   0.001895   0.433921   0.018175   0.001298   0.081869
     H   24   0.007706   0.000953   0.084949   0.007841   0.001556   0.423418


                  C  7       C  8       C  9       C 10       H 11       H 12
 ------------------------------------------------------------------------------
     C    7  18.312911
     C    8   0.005701  18.319357
     C    9  10.477952   0.003382  18.245095
     C   10   0.001498  10.663724   0.000668  18.181404
     H   11   0.033852   0.034346   0.033734   0.003144   5.087703
     H   12   0.417715   0.003983   0.039837   0.000969   0.015400   5.075547
     H   13   0.003296   0.444083   0.002339   0.055941   0.027061   0.001261
     H   14   0.035225   0.030479   0.004812   0.003022   0.002634   0.024791
     H   15   0.020029   0.031776   0.004527   0.003300   0.001239   0.028318
     H   16   0.037584   0.003882   0.428946   0.000533   0.032706   0.001071
     H   17   0.038864   0.002499   0.431824   0.000585   0.019846   0.004511
     H   18   0.000420   0.035547   0.000335   0.438997   0.000332   0.000120
     H   19   0.000301   0.041615   0.000277   0.479121   0.000248   0.000080
     H   20   0.000367   0.035537   0.000315   0.439002   0.000161   0.000114
     H   21   0.447747   0.001473   5.013945   0.000400   0.004005   0.012901
     H   22   5.027519   0.001060   0.448626   0.000569   0.003612   0.013780
     H   23   0.001481   4.756979   0.000808   0.468067   0.017950   0.000567
     H   24   0.000607   0.470273   0.000539   4.770959   0.000805   0.000255


                  H 13       H 14       H 15       H 16       H 17       H 18
 ------------------------------------------------------------------------------
     H   13   4.882754
     H   14   0.030351   5.308305
     H   15   0.027082   0.545822   5.329010
     H   16   0.002346   0.000342   0.000707   5.122956
     H   17   0.027571   0.000496   0.000615   0.565797   5.106918
     H   18   0.000483   0.000157   0.000217   0.000195   0.000173   5.425613
     H   19   0.000530   0.000221   0.000157   0.000058   0.000145   0.564326
     H   20   0.000458   0.000365   0.000583   0.000081   0.000073   0.576420
     H   21   0.000766   0.002284   0.001070   0.014581   0.014228   0.000138
     H   22   0.000690   0.001057   0.003735   0.015971   0.015346   0.000131
     H   23   0.036196   0.017054   0.001343   0.000331   0.000540   0.009181
     H   24   0.029760   0.000702   0.001183   0.000270   0.000388   0.024193


                  H 19       H 20       H 21       H 22       H 23       H 24
 ------------------------------------------------------------------------------
     H   19   5.451063
     H   20   0.564282   5.425610
     H   21   0.000094   0.000137   5.408810
     H   22   0.000108   0.000199   0.047117   5.423297
     H   23   0.029619   0.009265   0.000411   0.000357   5.138055
     H   24   0.040866   0.024159   0.000267   0.000208   0.102853   5.149172


          HEAT OF FORMATION =      24.404210 KCALS/MOLE

          ZERO POINT ENERGY     132.949 KCAL/MOL


           NORMAL COORDINATE ANALYSIS (Total motion = 1 Angstrom)


   Root No.       1         2         3         4         5         6         7         8

                 1 A       2 A       3 A       4 A       5 A       6 A       7 A       8 A   

                  61.0      83.8     131.5     169.9     214.5     264.7     316.3     353.5
  
           1    0.0042    0.0148   -0.0042    0.0035   -0.0091   -0.0117    0.0191    0.0194
           2    0.0182   -0.0164   -0.0113    0.0053    0.0050   -0.0128   -0.0028   -0.0240
           3   -0.0065   -0.0184    0.0025   -0.0011    0.0006   -0.0183   -0.0218   -0.0162
           4    0.0041    0.0149   -0.0039    0.0031   -0.0091   -0.0111    0.0198    0.0189
           5   -0.0088   -0.0085   -0.0052    0.0063   -0.0058   -0.0119    0.0074   -0.0232
           6    0.0006    0.0093   -0.0029    0.0054   -0.0143   -0.0271   -0.0073    0.0100
           7    0.0314    0.0080   -0.0100    0.0028    0.0057   -0.0087    0.0022   -0.0048
           8    0.0183   -0.0164   -0.0114    0.0060    0.0067   -0.0134   -0.0105   -0.0163
           9   -0.0027   -0.0217   -0.0052    0.0059    0.0279    0.0039    0.0037   -0.0166
          10    0.0309    0.0078   -0.0099    0.0024    0.0052   -0.0108    0.0027   -0.0001
          11   -0.0087   -0.0096   -0.0057    0.0066   -0.0072   -0.0096    0.0111   -0.0217
          12   -0.0030   -0.0281   -0.0116    0.0055   -0.0240    0.0410    0.0048    0.0095
          13   -0.0145   -0.0066    0.0046   -0.0043   -0.0033   -0.0008   -0.0083    0.0157
          14    0.0224   -0.0113   -0.0045   -0.0075   -0.0259    0.0018    0.0452    0.0057
          15   -0.0108   -0.0232    0.0093   -0.0109   -0.0149   -0.0072   -0.0111    0.0010
          16   -0.0310   -0.0109    0.0156   -0.0279    0.0247   -0.0021    0.0289   -0.0186
          17   -0.0291    0.0176    0.0219   -0.0344   -0.0230   -0.0114   -0.0164    0.0112
          18    0.0125    0.0304    0.0021   -0.0037   -0.0174    0.0129    0.0046   -0.0308
          19   -0.0136   -0.0076    0.0042   -0.0043   -0.0045   -0.0003   -0.0042    0.0143
          20   -0.0139    0.0269    0.0084   -0.0030    0.0196    0.0011   -0.0127   -0.0302
          21    0.0035    0.0330    0.0011    0.0034   -0.0036   -0.0256   -0.0098    0.0112
          22    0.0311   -0.0068   -0.0078   -0.0098   -0.0044    0.0237   -0.0351   -0.0192
          23    0.0243   -0.0106   -0.0068   -0.0070    0.0145    0.0011   -0.0313    0.0483
          24    0.0007   -0.0107   -0.0041    0.0060    0.0399   -0.0038    0.0211    0.0172
          25   -0.0236   -0.0188    0.0086   -0.0078   -0.0011    0.0036   -0.0167    0.0072
          26    0.0026    0.0256    0.0103   -0.0145    0.0162    0.0576    0.0161    0.0066
          27   -0.0031    0.0153    0.0087   -0.0078   -0.0002    0.0095   -0.0125    0.0188
          28   -0.0139    0.0068    0.0006    0.0520   -0.0111    0.0219   -0.0125   -0.0300
          29   -0.0204    0.0012    0.0012    0.0541    0.0084   -0.0020   -0.0109    0.0441
          30    0.0079    0.0124   -0.0007   -0.0002    0.0189    0.0033    0.0281    0.0006
          31    0.0009    0.0330   -0.0062    0.0091   -0.0201   -0.0234    0.0314    0.0335
          32    0.0295   -0.0207   -0.0181    0.0099    0.0300   -0.0090   -0.0126   -0.0395
          33   -0.0104   -0.0262    0.0072   -0.0070   -0.0063   -0.0131   -0.0232   -0.0148
          34   -0.0001    0.0342   -0.0048    0.0068   -0.0180   -0.0118    0.0352    0.0345
          35   -0.0194   -0.0285   -0.0093    0.0084   -0.0224    0.0137    0.0240   -0.0150
          36    0.0042    0.0321   -0.0010    0.0062   -0.0096   -0.0407   -0.0075    0.0143
          37    0.0411    0.0147   -0.0085    0.0036    0.0321   -0.0352    0.0030   -0.0080
          38    0.0234   -0.0211   -0.0106    0.0047    0.0018   -0.0264   -0.0237   -0.0428
          39   -0.0007   -0.0160   -0.0048    0.0066    0.0405   -0.0012    0.0113   -0.0046
          40    0.0384    0.0002   -0.0155    0.0006   -0.0231    0.0161   -0.0028    0.0150
          41   -0.0188   -0.0312   -0.0091    0.0062   -0.0189    0.0400    0.0234   -0.0214
          42   -0.0042   -0.0422   -0.0160    0.0046   -0.0439    0.0786    0.0084    0.0175
          43    0.0395    0.0106   -0.0078    0.0026    0.0423   -0.0368   -0.0060   -0.0198
          44   -0.0149    0.0150    0.0012    0.0073   -0.0051   -0.0554    0.0108   -0.0190
          45   -0.0044   -0.0435   -0.0166    0.0049   -0.0460    0.0821    0.0096    0.0190
          46   -0.0267    0.0201    0.0114   -0.0039    0.0416    0.0401   -0.0550    0.0092
          47    0.0311   -0.0269   -0.0105   -0.0053   -0.0501   -0.0271    0.0691    0.0058
          48   -0.0163   -0.0293    0.0180   -0.0238   -0.0376    0.0079    0.0199    0.0230
          49   -0.0092   -0.0395    0.0009   -0.0071   -0.0438   -0.0364    0.0253    0.0185
          50    0.0307   -0.0195   -0.0048   -0.0135   -0.0619   -0.0103    0.0929    0.0259
          51   -0.0141   -0.0489    0.0058   -0.0077   -0.0199   -0.0320   -0.0246   -0.0171
          52   -0.0218   -0.0141    0.0410   -0.0127    0.0241   -0.0008    0.0279   -0.0180
          53   -0.0948    0.0423   -0.1668   -0.1398   -0.0197   -0.0197   -0.0101    0.0053
          54   -0.0078    0.0586   -0.1188    0.0343   -0.0478    0.0381   -0.0383   -0.0424
          55    0.0082   -0.0449    0.1774   -0.0166    0.0526   -0.0196    0.0639   -0.0047
          56    0.0158    0.0112    0.1856   -0.0315   -0.0511   -0.0160   -0.0229   -0.0177
          57    0.0087    0.0195   -0.0039   -0.0004    0.0057    0.0080    0.0210   -0.0130
          58   -0.0959    0.0133   -0.1696   -0.1339    0.0289   -0.0107    0.0376   -0.0258
          59   -0.0182    0.0137    0.0537   -0.0184   -0.0242   -0.0103   -0.0179    0.0117
          60    0.0405    0.0285    0.1315   -0.0477   -0.0443    0.0016    0.0053   -0.0674
          61   -0.0370   -0.0350    0.0145   -0.0127    0.0032    0.0102   -0.0304   -0.0065
          62    0.0026    0.0464    0.0202   -0.0264    0.0372    0.1210    0.0158    0.0289
          63   -0.0031    0.0254    0.0135   -0.0136    0.0099    0.0402   -0.0126    0.0298
          64   -0.0172   -0.0130    0.0059   -0.0060   -0.0036    0.0028   -0.0091    0.0129
          65   -0.0298    0.0498    0.0166   -0.0028    0.0443   -0.0064   -0.0510   -0.0577
          66    0.0101    0.0606   -0.0019    0.0097    0.0026   -0.0396   -0.0065    0.0060
          67    0.0632   -0.0302   -0.0056   -0.0900    0.0032    0.0351   -0.0752   -0.0124
          68    0.0616   -0.0131   -0.0019   -0.0885    0.0179    0.0088   -0.0585    0.0795
          69   -0.0023   -0.0180   -0.0052    0.0088    0.0400   -0.0022    0.0167    0.0064
          70   -0.0439    0.0323   -0.0065    0.1426   -0.0364    0.0261    0.0033   -0.0590
          71   -0.0563    0.0008   -0.0100    0.1496    0.0210   -0.0084    0.0187    0.0505
          72    0.0111    0.0219    0.0012   -0.0050    0.0038    0.0075    0.0213   -0.0132


   Root No.       9        10        11        12        13        14        15        16

                 9 A      10 A      11 A      12 A      13 A      14 A      15 A      16 A   

                 399.1     489.8     532.6     670.4     749.5     773.3     805.8     861.0
  
           1   -0.0066   -0.0069    0.0120    0.0170    0.0150    0.0077   -0.0322    0.0071
           2   -0.0223   -0.0010   -0.0144   -0.0344    0.0006    0.0086   -0.0217   -0.0059
           3   -0.0128   -0.0078   -0.0065    0.0247   -0.0384    0.0249   -0.0258    0.0028
           4   -0.0045   -0.0079    0.0145    0.0195   -0.0246    0.0193   -0.0327    0.0142
           5    0.0039   -0.0223   -0.0024    0.0263    0.0024   -0.0076    0.0210   -0.0072
           6   -0.0031   -0.0165   -0.0079   -0.0275   -0.0269    0.0023    0.0372   -0.0098
           7   -0.0173    0.0175   -0.0082    0.0292    0.0044   -0.0068    0.0193   -0.0001
           8   -0.0218    0.0029   -0.0137   -0.0247    0.0186    0.0082   -0.0022    0.0127
           9   -0.0090    0.0012    0.0543   -0.0161    0.0054    0.0010   -0.0067    0.0041
          10   -0.0233    0.0229   -0.0079    0.0344   -0.0019   -0.0094    0.0201   -0.0184
          11    0.0005   -0.0282   -0.0020    0.0310    0.0254    0.0009    0.0108   -0.0074
          12   -0.0126    0.0269   -0.0073   -0.0065   -0.0062    0.0013    0.0143    0.0021
          13   -0.0027    0.0013   -0.0046   -0.0353    0.0571   -0.0195   -0.0073   -0.0059
          14    0.0137    0.0057    0.0109   -0.0311   -0.0101   -0.0169   -0.0191   -0.0047
          15    0.0096   -0.0022   -0.0052    0.0426   -0.0081   -0.0022   -0.0099    0.0079
          16    0.0121   -0.0080   -0.0233   -0.0070    0.0010    0.0016   -0.0040   -0.0148
          17   -0.0220    0.0108    0.0222    0.0071   -0.0025   -0.0008   -0.0012   -0.0151
          18    0.0095   -0.0089   -0.0123   -0.0089    0.0021    0.0022   -0.0025    0.0019
          19   -0.0018    0.0018    0.0004   -0.0379   -0.0593    0.0190    0.0149   -0.0012
          20    0.0298    0.0431    0.0013    0.0117   -0.0172   -0.0302   -0.0019    0.0030
          21    0.0065    0.0092   -0.0020   -0.0286   -0.0039   -0.0093   -0.0023   -0.0002
          22    0.0272   -0.0160    0.0172   -0.0006    0.0031   -0.0018    0.0066    0.0276
          23    0.0242   -0.0076   -0.0091    0.0046    0.0007    0.0019    0.0045    0.0289
          24   -0.0004    0.0088    0.0368    0.0107    0.0001   -0.0120    0.0087   -0.0087
          25    0.0020    0.0057   -0.0065   -0.0176    0.0005   -0.0033    0.0110   -0.0026
          26   -0.0163   -0.0139    0.0058   -0.0005   -0.0423   -0.0090    0.0066    0.0033
          27   -0.0124   -0.0167   -0.0086    0.0029    0.0704   -0.0279   -0.0087   -0.0010
          28    0.0153   -0.0120    0.0132   -0.0040   -0.0006   -0.0009   -0.0045   -0.0179
          29    0.0091    0.0001   -0.0086    0.0066   -0.0052    0.0030   -0.0059   -0.0157
          30    0.0206   -0.0076   -0.0413   -0.0018   -0.0017    0.0039   -0.0019    0.0020
          31    0.0003   -0.0257    0.0176    0.0236   -0.0238    0.0233   -0.0086    0.0086
          32   -0.0404    0.0109   -0.0027   -0.0723    0.0240    0.0148   -0.0237   -0.0072
          33   -0.0060   -0.0032   -0.0147    0.0417   -0.0286    0.0130   -0.0371    0.0039
          34    0.0111   -0.0136    0.0288    0.0273    0.0121    0.0006   -0.0313    0.0398
          35    0.0008   -0.0417    0.0028    0.0541    0.0228    0.0149    0.0376    0.0055
          36    0.0080   -0.0074   -0.0022   -0.0388   -0.0168   -0.0214    0.0271   -0.0018
          37   -0.0315    0.0274   -0.0048    0.0411   -0.0045   -0.0125    0.0330   -0.0215
          38   -0.0406    0.0089   -0.0388   -0.0364   -0.0012    0.0325   -0.0207    0.0101
          39   -0.0055    0.0029    0.0660   -0.0051    0.0101   -0.0129    0.0078   -0.0045
          40   -0.0348    0.0656   -0.0734    0.0567   -0.0163   -0.0248    0.0302   -0.0506
          41    0.0000    0.0107   -0.0087    0.0794    0.0431   -0.0089   -0.0777    0.0055
          42   -0.0194    0.0689   -0.0444    0.0284   -0.0051   -0.0116   -0.0260   -0.0084
          43   -0.0241    0.0055    0.0453    0.0019    0.0193   -0.0086    0.0399    0.0030
          44    0.0160   -0.0897    0.0151    0.0087    0.0027    0.0226    0.0787   -0.0133
          45   -0.0210    0.0735   -0.0480    0.0263   -0.0059   -0.0122   -0.0357   -0.0071
          46   -0.0649   -0.0458   -0.0403   -0.0407   -0.0083   -0.0944   -0.0583   -0.0021
          47    0.0459    0.0331    0.0289   -0.0319    0.0307    0.0313   -0.0009   -0.0092
          48    0.0516    0.0157    0.0224    0.0617    0.0127   -0.0019    0.0728    0.0171
          49    0.0576    0.0492    0.0217   -0.0367    0.1157    0.0470    0.0561   -0.0118
          50    0.0650    0.0359    0.0473   -0.0217    0.0619    0.0114    0.0411   -0.0032
          51    0.0209    0.0178   -0.0136    0.0312   -0.0221    0.0412   -0.0045    0.0000
          52    0.0140   -0.0092   -0.0236   -0.0072    0.0001    0.0022   -0.0068   -0.0272
          53   -0.0350    0.0190    0.0215    0.0062    0.0058   -0.0047    0.0199    0.0809
          54    0.0185   -0.0183    0.0349   -0.0084   -0.0037   -0.0027   -0.0208   -0.1139
          55    0.0121   -0.0044   -0.0660   -0.0090    0.0033    0.0078    0.0024    0.0459
          56   -0.0486    0.0205    0.0580    0.0059    0.0058   -0.0104    0.0159    0.0316
          57    0.0205   -0.0114   -0.0432   -0.0092   -0.0004    0.0085   -0.0071    0.0059
          58    0.0008   -0.0013   -0.0308   -0.0110    0.0103   -0.0008    0.0161    0.0848
          59   -0.0214    0.0103    0.0247    0.0078   -0.0035   -0.0009   -0.0032   -0.0271
          60   -0.0261    0.0048    0.0225   -0.0143    0.0168   -0.0094    0.0255    0.1021
          61    0.0080    0.0099   -0.0113    0.0472   -0.0015   -0.0114    0.0124    0.0105
          62   -0.0502   -0.0308    0.0091    0.0086    0.0776    0.2379    0.0633   -0.0248
          63   -0.0288   -0.0251   -0.0070    0.0077    0.1291    0.0921    0.0184   -0.0144
          64   -0.0018    0.0022   -0.0036   -0.0423   -0.0470    0.0040    0.0270   -0.0066
          65    0.0711    0.1477   -0.0020    0.0016    0.1011    0.1548   -0.0194   -0.0139
          66    0.0217    0.0466    0.0110   -0.0160   -0.0051    0.1131   -0.0512    0.0131
          67    0.0610   -0.0420    0.0633   -0.0043   -0.0121    0.0010   -0.0323   -0.0657
          68    0.0719   -0.0337   -0.0278    0.0221   -0.0257    0.0109   -0.0308   -0.0625
          69   -0.0069    0.0094    0.0603    0.0022    0.0048   -0.0143    0.0081   -0.0066
          70   -0.0100    0.0007   -0.0043   -0.0173    0.0152   -0.0024    0.0232    0.1341
          71   -0.0174    0.0230   -0.0086    0.0082    0.0069   -0.0071    0.0289    0.1252
          72    0.0212   -0.0118   -0.0460   -0.0074   -0.0006    0.0072   -0.0055    0.0017


   Root No.      17        18        19        20        21        22        23        24

                17 A      18 A      19 A      20 A      21 A      22 A      23 A      24 A   

                 896.4     908.4     924.5     951.8     967.7     970.1     994.0    1017.7
  
           1   -0.0057    0.0140    0.0117    0.0358    0.0082   -0.0036    0.0011    0.0092
           2    0.0043   -0.0024    0.0056    0.0006   -0.0119    0.0116   -0.0002    0.0128
           3   -0.0049   -0.0010    0.0058    0.0179   -0.0025   -0.0031    0.0048    0.0145
           4   -0.0095    0.0035   -0.0040   -0.0275   -0.0034    0.0128   -0.0031    0.0079
           5    0.0026    0.0006    0.0042    0.0002   -0.0028    0.0043   -0.0055   -0.0146
           6    0.0070   -0.0024    0.0016    0.0103    0.0040   -0.0003   -0.0079   -0.0081
           7    0.0030   -0.0077   -0.0125   -0.0130    0.0059   -0.0054   -0.0024    0.0044
           8   -0.0253    0.0107   -0.0015    0.0007    0.0252   -0.0014   -0.0050   -0.0135
           9   -0.0097    0.0090    0.0056   -0.0002   -0.0003   -0.0084   -0.0021   -0.0044
          10    0.0120    0.0093    0.0153    0.0023   -0.0170   -0.0014    0.0153   -0.0028
          11    0.0080   -0.0174   -0.0082   -0.0008   -0.0039   -0.0184    0.0162    0.0036
          12    0.0094    0.0334    0.0104   -0.0085   -0.0016    0.0078    0.0085    0.0101
          13    0.0045   -0.0038    0.0002   -0.0078   -0.0087    0.0024    0.0017    0.0050
          14    0.0385   -0.0013   -0.0054    0.0041   -0.0062    0.0023   -0.0105   -0.0179
          15    0.0102    0.0074   -0.0038   -0.0078    0.0019    0.0060   -0.0046   -0.0125
          16   -0.0034   -0.0009   -0.0032    0.0009    0.0131    0.0167    0.0113   -0.0090
          17   -0.0027    0.0076    0.0026   -0.0073   -0.0067   -0.0172   -0.0117   -0.0029
          18   -0.0033    0.0026    0.0016    0.0004   -0.0002   -0.0039   -0.0042   -0.0013
          19   -0.0020   -0.0144   -0.0082   -0.0016    0.0021   -0.0141    0.0105   -0.0068
          20   -0.0207    0.0065    0.0105    0.0088   -0.0174    0.0171   -0.0078   -0.0017
          21   -0.0123   -0.0160   -0.0057   -0.0068   -0.0111   -0.0053    0.0095   -0.0080
          22    0.0028    0.0000   -0.0255    0.0073   -0.0087   -0.0060   -0.0058    0.0011
          23    0.0005    0.0024   -0.0247    0.0093   -0.0014    0.0061    0.0051   -0.0032
          24    0.0117   -0.0231   -0.0100    0.0053    0.0036    0.0078   -0.0077    0.0056
          25    0.0008   -0.0002    0.0006    0.0048    0.0027   -0.0006   -0.0030   -0.0029
          26   -0.0088    0.0040    0.0001   -0.0054    0.0126   -0.0099    0.0121    0.0247
          27   -0.0025    0.0028    0.0023    0.0028    0.0079   -0.0046    0.0029    0.0137
          28   -0.0018    0.0002   -0.0100    0.0022   -0.0027   -0.0012   -0.0035    0.0085
          29   -0.0040    0.0074   -0.0067    0.0017   -0.0016    0.0012    0.0033    0.0062
          30   -0.0015    0.0058    0.0029   -0.0021   -0.0029   -0.0034    0.0016    0.0008
          31   -0.0164    0.0399    0.0384    0.1593    0.0470   -0.0081   -0.0258   -0.0488
          32   -0.0337   -0.0138    0.0080   -0.0641   -0.0107    0.0113    0.0088    0.0677
          33    0.0193   -0.0087   -0.0105   -0.0199   -0.0234    0.0001    0.0146    0.0179
          34   -0.0283    0.0393   -0.0140   -0.1238    0.0228    0.0777   -0.0782   -0.0409
          35    0.0201    0.0319   -0.0075   -0.0707    0.0293    0.0218   -0.0241   -0.0098
          36   -0.0145   -0.0009    0.0012   -0.0085    0.0000    0.0275   -0.0408   -0.0402
          37   -0.0232   -0.0524   -0.0291   -0.0359    0.0534   -0.0146   -0.0632   -0.0158
          38   -0.0758    0.0065    0.0004   -0.0226    0.0799   -0.0003   -0.0301   -0.0223
          39    0.0033   -0.0107   -0.0035    0.0008   -0.0052   -0.0129   -0.0182   -0.0077
          40    0.0043   -0.0731    0.0029    0.0430    0.0207    0.0140   -0.0729    0.0462
          41   -0.0416   -0.1025   -0.0454   -0.0075   -0.0302   -0.0691    0.0619   -0.0903
          42   -0.0197   -0.0518   -0.0143    0.0111    0.0043   -0.0095   -0.0140   -0.0112
          43    0.0100    0.1238    0.0581   -0.0182   -0.0419   -0.0128    0.1009   -0.1020
          44    0.0663    0.0212   -0.0069   -0.0286    0.0102    0.0173   -0.0231    0.1388
          45   -0.0242   -0.0564   -0.0157    0.0185    0.0053   -0.0069   -0.0187   -0.0123
          46    0.1094    0.0043   -0.0293   -0.0374    0.0029    0.0022   -0.0222   -0.0745
          47   -0.0156   -0.0070    0.0159    0.0348   -0.0261    0.0113   -0.0011    0.0396
          48   -0.0662    0.0112   -0.0132   -0.0688    0.0680   -0.0397    0.0259   -0.0445
          49   -0.0924   -0.0176    0.0195   -0.0205   -0.0348    0.0158    0.0271    0.0710
          50   -0.0580    0.0022    0.0115    0.0114    0.0407   -0.0339    0.0143    0.0115
          51    0.0060   -0.0115   -0.0006   -0.0287   -0.0751    0.0570   -0.0024    0.0278
          52   -0.0061    0.0017   -0.0038   -0.0009    0.0159    0.0175    0.0118   -0.0132
          53    0.0165   -0.0129    0.0069    0.0080   -0.0237   -0.0177   -0.0120    0.0255
          54   -0.0116   -0.0146   -0.0280    0.0063    0.0688    0.0931    0.0590   -0.0407
          55   -0.0053    0.0214    0.0200   -0.0084   -0.0353   -0.0624   -0.0420    0.0105
          56    0.0188   -0.0361   -0.0133    0.0180    0.0255    0.0620    0.0418    0.0047
          57   -0.0129    0.0290    0.0170   -0.0134   -0.0318   -0.0669   -0.0471    0.0029
          58    0.0138   -0.0205    0.0018    0.0180   -0.0006    0.0199    0.0136    0.0167
          59   -0.0043    0.0089    0.0015   -0.0090   -0.0042   -0.0157   -0.0108   -0.0061
          60    0.0280   -0.0578   -0.0148    0.0399    0.0350    0.0935    0.0597    0.0165
          61   -0.0073    0.0435    0.0194    0.0207    0.0282    0.0370   -0.0458    0.0060
          62   -0.0155   -0.0350    0.0107    0.0247   -0.0805    0.0577   -0.0438   -0.0822
          63   -0.0060   -0.0167    0.0070    0.0163   -0.0376    0.0279   -0.0237   -0.0385
          64   -0.0008   -0.0088   -0.0002    0.0225    0.0051   -0.0128    0.0003   -0.0081
          65    0.1548    0.0352   -0.0207    0.0116    0.0950   -0.0517   -0.0045    0.0176
          66    0.0482   -0.0255   -0.0461   -0.0915    0.0211   -0.0353    0.0459    0.0026
          67    0.0072   -0.0546    0.1923   -0.0327    0.0228   -0.0304   -0.0394   -0.0014
          68    0.0147   -0.0419    0.1883   -0.0407    0.0331    0.0239    0.0403    0.0016
          69    0.0075   -0.0254   -0.0145    0.0107    0.0019   -0.0075   -0.0332    0.0027
          70    0.0279   -0.0448    0.1494   -0.0244   -0.0062   -0.0389   -0.0261   -0.0190
          71    0.0412   -0.0699    0.1315   -0.0071    0.0294    0.0359    0.0287   -0.0189
          72   -0.0083    0.0194    0.0062   -0.0078   -0.0157   -0.0296   -0.0159    0.0006


   Root No.      25        26        27        28        29        30        31        32

                25 A      26 A      27 A      28 A      29 A      30 A      31 A      32 A   

                1027.5    1040.3    1044.1    1062.4    1074.9    1098.1    1117.5    1133.0
  
           1   -0.0082   -0.0094   -0.0061    0.0082    0.0062   -0.0097    0.0106   -0.0075
           2    0.0030    0.0148    0.0114    0.0068   -0.0041    0.0007   -0.0082    0.0227
           3   -0.0025   -0.0123   -0.0203   -0.0048   -0.0224   -0.0125   -0.0189   -0.0018
           4    0.0021    0.0047    0.0033    0.0064   -0.0092    0.0029   -0.0058    0.0142
           5    0.0179    0.0141   -0.0148   -0.0092   -0.0219    0.0087   -0.0173    0.0063
           6    0.0053    0.0065    0.0078   -0.0041   -0.0046   -0.0078   -0.0206   -0.0002
           7   -0.0206   -0.0247    0.0084   -0.0124    0.0204   -0.0038    0.0016   -0.0001
           8    0.0007    0.0020   -0.0040    0.0075    0.0187   -0.0003    0.0295   -0.0228
           9    0.0053    0.0048   -0.0007    0.0070   -0.0025   -0.0022    0.0032    0.0020
          10    0.0150    0.0175    0.0001    0.0131   -0.0159   -0.0007    0.0012    0.0002
          11   -0.0102   -0.0075    0.0141    0.0111    0.0162   -0.0102    0.0093   -0.0168
          12   -0.0105   -0.0182   -0.0033   -0.0009    0.0145   -0.0001   -0.0069    0.0001
          13    0.0061    0.0025   -0.0320   -0.0002    0.0053   -0.0077   -0.0221   -0.0055
          14   -0.0018   -0.0109   -0.0016   -0.0008    0.0023    0.0051   -0.0007   -0.0001
          15   -0.0001    0.0046    0.0081    0.0080    0.0161    0.0010    0.0189    0.0076
          16   -0.0213    0.0085   -0.0040    0.0019   -0.0033    0.0001    0.0022   -0.0019
          17   -0.0248    0.0067   -0.0032   -0.0012   -0.0026   -0.0001   -0.0035    0.0023
          18    0.0029    0.0041   -0.0014    0.0027    0.0005    0.0013    0.0068   -0.0095
          19   -0.0022   -0.0043    0.0079   -0.0043   -0.0063    0.0055    0.0223   -0.0020
          20   -0.0083   -0.0168   -0.0093    0.0071    0.0042    0.0050    0.0037    0.0046
          21   -0.0038   -0.0086   -0.0005   -0.0006   -0.0002    0.0140    0.0223    0.0034
          22   -0.0149    0.0068   -0.0047   -0.0009   -0.0086   -0.0007   -0.0094    0.0055
          23   -0.0115    0.0090   -0.0053    0.0018   -0.0084    0.0004   -0.0010   -0.0009
          24   -0.0028    0.0000   -0.0017   -0.0026    0.0016    0.0018   -0.0030   -0.0012
          25   -0.0025   -0.0034    0.0158   -0.0020   -0.0084    0.0098    0.0054    0.0002
          26    0.0043    0.0219   -0.0008   -0.0144    0.0062   -0.0099   -0.0098   -0.0099
          27   -0.0016    0.0041    0.0173   -0.0151   -0.0158    0.0118    0.0079    0.0056
          28    0.0309   -0.0122    0.0064   -0.0018    0.0073    0.0002    0.0000    0.0020
          29    0.0321   -0.0121    0.0051    0.0004    0.0059   -0.0002    0.0052   -0.0045
          30   -0.0023   -0.0036    0.0005   -0.0017   -0.0013   -0.0021   -0.0074    0.0081
          31    0.0200    0.0614   -0.0053   -0.0420    0.1052    0.0291   -0.0073    0.1036
          32   -0.0127   -0.0038    0.0920    0.0535   -0.0476    0.0011    0.0187    0.1186
          33   -0.0097   -0.0421   -0.0626    0.0003   -0.0553   -0.0359   -0.0226   -0.1130
          34    0.0258    0.0196    0.0638   -0.0315   -0.0471   -0.1162    0.0216   -0.0620
          35    0.0280   -0.0110   -0.0676   -0.1134   -0.0893    0.1119    0.1156    0.0453
          36    0.0132    0.0292    0.0752    0.0330    0.0117   -0.1385   -0.0825   -0.0688
          37   -0.0003   -0.0613   -0.0210   -0.0954    0.0434    0.0293   -0.0870    0.0464
          38    0.0188   -0.0563   -0.0480   -0.0444    0.0139    0.0054   -0.0767   -0.0072
          39    0.0051    0.0161    0.0070   -0.0047    0.0099    0.0096    0.0138    0.0160
          40    0.0460    0.0765   -0.0500    0.0644   -0.0517    0.0089    0.0756   -0.0362
          41    0.0006   -0.0036    0.0795   -0.0393    0.0064   -0.0237   -0.0517    0.0159
          42    0.0109    0.0145    0.0042    0.0013   -0.0084   -0.0031   -0.0009   -0.0017
          43    0.0310   -0.0040    0.0144   -0.0441   -0.0120    0.0068   -0.0043   -0.0377
          44   -0.0636   -0.0498   -0.0135    0.0622    0.0567   -0.0073    0.0123    0.0158
          45    0.0116    0.0183    0.0046    0.0015   -0.0109   -0.0064   -0.0066    0.0027
          46    0.0222   -0.0106   -0.0654    0.0553    0.0543   -0.0291   -0.0247    0.0386
          47   -0.0203   -0.0037    0.0301   -0.0595   -0.0292    0.0307    0.0021   -0.0436
          48    0.0457    0.0174   -0.0470    0.1350    0.0236   -0.0609    0.0008    0.1001
          49    0.0130    0.0651   -0.0464   -0.0469    0.0495   -0.0416   -0.0430   -0.0011
          50    0.0078   -0.0364   -0.0144    0.0513   -0.0755    0.0133   -0.0451    0.0057
          51   -0.0030    0.0974    0.0074   -0.0954    0.1408   -0.0437    0.0460    0.0070
          52   -0.0349    0.0138   -0.0062    0.0026   -0.0049    0.0004    0.0035   -0.0034
          53    0.0766   -0.0292    0.0129   -0.0045    0.0097   -0.0011   -0.0068    0.0079
          54   -0.1025    0.0370   -0.0185    0.0073   -0.0149    0.0006    0.0104   -0.0115
          55    0.0304    0.0002    0.0022    0.0030    0.0055    0.0035    0.0133   -0.0181
          56    0.0266   -0.0184    0.0061   -0.0038    0.0011   -0.0034   -0.0117    0.0173
          57    0.0017    0.0118   -0.0031    0.0046    0.0023    0.0042    0.0156   -0.0236
          58    0.0859   -0.0236    0.0113    0.0022    0.0099    0.0011    0.0116   -0.0101
          59   -0.0384    0.0104   -0.0050   -0.0014   -0.0044   -0.0004   -0.0056    0.0042
          60    0.1157   -0.0341    0.0142    0.0040    0.0115    0.0006    0.0164   -0.0141
          61   -0.0144    0.0178    0.1429    0.0550    0.0087    0.1946   -0.1097   -0.0674
          62   -0.0085   -0.0503   -0.0196    0.0425    0.0101    0.0036   -0.0013    0.0038
          63   -0.0076   -0.0307    0.0077    0.0121   -0.0139    0.0184    0.0143    0.0137
          64   -0.0103   -0.0205    0.0298   -0.0213   -0.0319   -0.0541    0.0449    0.0177
          65    0.0181    0.0293    0.0425   -0.0394   -0.0468   -0.1020   -0.0012    0.0225
          66    0.0337    0.0645   -0.0506    0.0411    0.0665    0.1837   -0.0541   -0.0583
          67    0.0447   -0.0033   -0.0015    0.0042    0.0300    0.0091    0.0438   -0.0556
          68    0.0247   -0.0523    0.0217   -0.0160    0.0205   -0.0106   -0.0253    0.0393
          69    0.0048    0.0204   -0.0115    0.0064    0.0040    0.0094    0.0258   -0.0392
          70   -0.0751    0.0348   -0.0108   -0.0015   -0.0104    0.0044   -0.0068    0.0255
          71   -0.0754    0.0202   -0.0184    0.0027   -0.0209   -0.0050   -0.0097   -0.0185
          72    0.0016    0.0008    0.0032   -0.0022    0.0026    0.0012   -0.0039    0.0214


   Root No.      33        34        35        36        37        38        39        40

                33 A      34 A      35 A      36 A      37 A      38 A      39 A      40 A   

                1157.5    1169.2    1191.8    1199.4    1221.0    1227.6    1234.8    1247.5
  
           1   -0.0225   -0.0155   -0.0080    0.0215    0.0247   -0.0011    0.0135   -0.0009
           2    0.0074   -0.0062   -0.0180   -0.0239   -0.0201    0.0156    0.0029    0.0097
           3   -0.0075   -0.0102   -0.0063   -0.0033   -0.0104    0.0240    0.0000    0.0000
           4    0.0224    0.0194   -0.0078   -0.0096    0.0013   -0.0409   -0.0124    0.0019
           5   -0.0017   -0.0014   -0.0041    0.0057    0.0094   -0.0340   -0.0300   -0.0037
           6   -0.0103   -0.0158   -0.0107    0.0037    0.0090   -0.0117    0.0107   -0.0029
           7   -0.0131   -0.0304   -0.0095   -0.0164   -0.0116   -0.0131   -0.0166   -0.0039
           8   -0.0090    0.0021   -0.0007   -0.0124   -0.0117   -0.0271   -0.0037   -0.0002
           9   -0.0095    0.0177    0.0226    0.0177   -0.0141   -0.0134    0.0148    0.0054
          10    0.0175    0.0198    0.0120    0.0001   -0.0022    0.0124    0.0227   -0.0062
          11   -0.0020    0.0073    0.0115    0.0087    0.0038    0.0198    0.0010    0.0050
          12    0.0081    0.0084   -0.0076    0.0005    0.0019    0.0056   -0.0095    0.0012
          13   -0.0069   -0.0061   -0.0018    0.0015   -0.0029    0.0068   -0.0011   -0.0016
          14   -0.0004    0.0017    0.0058    0.0057    0.0035   -0.0038    0.0080   -0.0005
          15   -0.0014    0.0011    0.0047    0.0108    0.0088    0.0038   -0.0189   -0.0032
          16    0.0005    0.0059   -0.0056    0.0026    0.0009    0.0017    0.0008   -0.0007
          17    0.0003   -0.0059    0.0055   -0.0018   -0.0010   -0.0016   -0.0008    0.0004
          18    0.0232   -0.0118   -0.0117    0.0207   -0.0129   -0.0012    0.0007   -0.0105
          19    0.0019    0.0055    0.0058    0.0005   -0.0012    0.0042   -0.0031    0.0008
          20    0.0007   -0.0007   -0.0003   -0.0005   -0.0025    0.0077   -0.0039   -0.0004
          21    0.0039    0.0033    0.0011   -0.0028    0.0019   -0.0051    0.0220    0.0028
          22    0.0018   -0.0078    0.0158    0.0012    0.0001   -0.0013    0.0013    0.0125
          23    0.0016    0.0133   -0.0127    0.0068    0.0060    0.0099    0.0031   -0.0130
          24    0.0083   -0.0204    0.0047   -0.0207    0.0066    0.0008   -0.0075   -0.0379
          25    0.0053    0.0068    0.0066   -0.0024   -0.0079    0.0095   -0.0223   -0.0003
          26   -0.0067   -0.0052   -0.0019    0.0025    0.0025    0.0011    0.0038   -0.0009
          27    0.0121    0.0110    0.0030   -0.0062   -0.0055   -0.0066   -0.0123    0.0013
          28   -0.0027   -0.0089    0.0095   -0.0038   -0.0064   -0.0072   -0.0021    0.0019
          29    0.0007    0.0065   -0.0103    0.0003    0.0049    0.0041    0.0006   -0.0009
          30   -0.0181    0.0046    0.0236   -0.0213    0.0149   -0.0029   -0.0006    0.0507
          31    0.0400   -0.0060    0.0276   -0.0488   -0.0738    0.0967   -0.0264    0.0056
          32   -0.0441   -0.0776   -0.0057    0.1176    0.1221    0.0560   -0.0434   -0.0194
          33   -0.0174    0.0205   -0.0340   -0.0370   -0.0297   -0.0528    0.0456    0.0116
          34   -0.0277   -0.0154    0.0364   -0.0182   -0.0580    0.1466    0.0207    0.0045
          35   -0.0394   -0.0749   -0.0065   -0.0178   -0.0142    0.0674    0.1079   -0.0004
          36   -0.0190    0.0049    0.0166    0.0119   -0.0130    0.0424   -0.0488   -0.0032
          37   -0.0093    0.1218   -0.0824    0.1209   -0.0060    0.0478    0.0076    0.0814
          38    0.1167    0.0267    0.1352    0.0109    0.1230    0.0204    0.0414   -0.0752
          39   -0.0694    0.0750   -0.0751    0.0668   -0.0791   -0.0094    0.0044    0.0790
          40   -0.0432    0.0271    0.0666    0.0498    0.0052    0.0067   -0.0090    0.0189
          41    0.0363    0.0004   -0.0138   -0.0263   -0.0144    0.0223    0.0762   -0.0148
          42   -0.0047    0.0087    0.0068    0.0094   -0.0034    0.0034    0.0111    0.0041
          43   -0.0079   -0.0119   -0.0129    0.0204    0.0462    0.0356   -0.0367    0.0122
          44    0.0622    0.0745    0.0276   -0.0131   -0.0374    0.0354    0.0529   -0.0062
          45   -0.0141   -0.0100   -0.0023    0.0028   -0.0025   -0.0169   -0.0054   -0.0021
          46   -0.0091   -0.0295   -0.0063    0.0083    0.0193    0.0003    0.0564   -0.0022
          47   -0.0011    0.0213    0.0180    0.0108   -0.0063    0.0044   -0.0399   -0.0046
          48    0.0063   -0.0344   -0.0473   -0.0358   -0.0095   -0.0084    0.0527    0.0195
          49   -0.0112   -0.0272   -0.0148   -0.0044    0.0099   -0.0055    0.0550   -0.0004
          50   -0.0029   -0.0108   -0.0149   -0.0169   -0.0243    0.0386   -0.0125    0.0002
          51   -0.0031   -0.0063    0.0121    0.0277    0.0490   -0.0541    0.0576   -0.0015
          52    0.0031    0.0077   -0.0123    0.0073   -0.0008    0.0038    0.0015   -0.0139
          53   -0.0127   -0.0100    0.0299   -0.0226    0.0080   -0.0088   -0.0034    0.0498
          54    0.0083    0.0276   -0.0443    0.0150    0.0088    0.0191    0.0033   -0.0438
          55    0.0465   -0.0228   -0.0358    0.0438   -0.0269    0.0040    0.0013   -0.0662
          56   -0.0460    0.0219    0.0353   -0.0435    0.0263   -0.0043   -0.0014    0.0658
          57    0.0636   -0.0352   -0.0397    0.0563   -0.0352    0.0023    0.0011   -0.0674
          58    0.0122    0.0093   -0.0312    0.0216   -0.0085    0.0086    0.0034   -0.0507
          59   -0.0028   -0.0066    0.0120   -0.0067    0.0015   -0.0033   -0.0014    0.0137
          60    0.0072    0.0260   -0.0444    0.0130    0.0081    0.0183    0.0031   -0.0430
          61   -0.0252   -0.0313   -0.0234   -0.0138    0.0146   -0.0408    0.1415    0.0091
          62   -0.0073   -0.0071   -0.0016    0.0056    0.0049    0.0006    0.0070   -0.0010
          63    0.0129    0.0112    0.0036   -0.0050   -0.0045   -0.0074   -0.0125    0.0013
          64    0.0172    0.0135   -0.0059   -0.0057    0.0083   -0.0274    0.0308    0.0039
          65    0.0146    0.0054   -0.0187   -0.0038    0.0161   -0.0506    0.0300    0.0015
          66   -0.0410   -0.0184    0.0360    0.0157   -0.0253    0.0809   -0.0857   -0.0066
          67    0.0523    0.0059   -0.0818   -0.0631    0.0931    0.0440   -0.0195    0.1026
          68   -0.0580   -0.0169    0.0742    0.0434   -0.1060   -0.0617    0.0126   -0.1052
          69    0.0489   -0.0027   -0.0633   -0.0596    0.0843    0.0448   -0.0184    0.0275
          70   -0.0877    0.0950   -0.0253   -0.0600    0.0402    0.0259    0.0035   -0.1468
          71    0.0931   -0.0860    0.0291    0.0681   -0.0341   -0.0160    0.0023    0.1486
          72   -0.0838    0.0776   -0.0036   -0.0692    0.0487    0.0172    0.0007   -0.0586


   Root No.      41        42        43        44        45        46        47        48

                41 A      42 A      43 A      44 A      45 A      46 A      47 A      48 A   

                1261.7    1298.6    1355.8    1384.6    1395.0    1396.9    1403.6    1412.5
  
           1   -0.0020    0.0453   -0.0181    0.0011    0.0030    0.0000    0.0002    0.0100
           2    0.0299    0.0396    0.0128    0.0160   -0.0032   -0.0001    0.0096    0.0148
           3   -0.0032   -0.0374   -0.0222   -0.0143    0.0052    0.0001   -0.0069   -0.0211
           4    0.0139   -0.0289    0.0175    0.0003   -0.0114    0.0000   -0.0090    0.0155
           5   -0.0132    0.0130   -0.0187   -0.0064    0.0234    0.0001    0.0115   -0.0298
           6   -0.0138   -0.0028    0.0141    0.0124   -0.0308   -0.0001   -0.0131    0.0431
           7   -0.0117   -0.0241   -0.0082    0.0165   -0.0055   -0.0002    0.0166   -0.0013
           8   -0.0189   -0.0026    0.0070   -0.0196    0.0069    0.0001   -0.0181   -0.0040
           9   -0.0155   -0.0172   -0.0052    0.0224   -0.0111   -0.0002    0.0191    0.0104
          10   -0.0311    0.0131   -0.0031   -0.0049    0.0067   -0.0001    0.0076   -0.0066
          11    0.0407   -0.0204    0.0079    0.0072   -0.0053   -0.0002    0.0113    0.0039
          12    0.0072    0.0047   -0.0025   -0.0065    0.0066    0.0001   -0.0019   -0.0080
[...]
 RED. MASS   0.4542        C  2 --  H 12           +7.9% ( 34.7%)     1.2%
 EFF. MASS   4.6308

 VIBRATION   46   46A       ATOM PAIR        ENERGY CONTRIBUTION    RADIAL
 FREQ.      1396.86        C  6 --  H 19          +53.8% ( 63.4%)     0.0%
 T-DIPOLE    0.0594        C  6 --  H 20          +20.8% ( 39.4%)    11.2%
 TRAVEL      0.1759        C  6 --  H 18          +20.3% ( 38.9%)    11.6%
 RED. MASS   0.4207        C  6 --  C 10           +5.0% ( 19.4%)     0.0%
 EFF. MASS   1.5600

 VIBRATION   47   47A       ATOM PAIR        ENERGY CONTRIBUTION    RADIAL
 FREQ.      1403.59        C  6 --  H 18           +9.1% ( 35.9%)     0.0%
 T-DIPOLE    0.0310        C  6 --  H 20           +8.9% ( 35.5%)     0.1%
 TRAVEL      0.1097        C  4 --  H 15           +8.2% ( 34.1%)     1.9%
 RED. MASS   0.2689        C  4 --  H 14           +7.7% ( 33.0%)     3.0%
 EFF. MASS   3.9889

 VIBRATION   48   48A       ATOM PAIR        ENERGY CONTRIBUTION    RADIAL
 FREQ.      1412.48        C  2 --  C  7          +15.5% ( 57.5%)    98.8%
 T-DIPOLE    0.0366        C  5 --  C  9           +8.2% ( 41.8%)    76.9%
 TRAVEL      0.0802        C  1 --  C  2           +8.2% ( 41.8%)     0.5%
 RED. MASS   1.0099        C  5 --  H 17           +8.2% ( 41.8%)     6.3%
 EFF. MASS   7.4270

 VIBRATION   49   49A       ATOM PAIR        ENERGY CONTRIBUTION    RADIAL
 FREQ.      1421.37        C  4 --  H 15          +15.7% ( 49.8%)     3.8%
 T-DIPOLE    0.0434        C  4 --  H 14          +14.1% ( 47.2%)     6.0%
 TRAVEL      0.1021        C  6 --  H 19           +8.9% ( 37.5%)     6.5%
 RED. MASS   0.4471        C  2 --  C  4           +8.5% ( 36.6%)    80.4%
 EFF. MASS   4.5531

 VIBRATION   50   50A       ATOM PAIR        ENERGY CONTRIBUTION    RADIAL
 FREQ.      1453.26        C  3 --  C  8          +13.4% ( 59.8%)    92.8%
 T-DIPOLE    0.0670        C  1 --  C  3           +9.7% ( 50.9%)    51.4%
 TRAVEL      0.0707        C  2 --  C  3           +9.7% ( 50.7%)    72.8%
 RED. MASS   1.6178        C  3 --  H 13           +9.6% ( 50.7%)     0.0%
 EFF. MASS   9.2852

 VIBRATION   51   51A       ATOM PAIR        ENERGY CONTRIBUTION    RADIAL
 FREQ.      1820.16        C  7 --  C  9          +45.8% (100.1%)   100.0%
 T-DIPOLE    0.1261        C  5 --  C  9          +14.0% ( 55.4%)    26.1%
 TRAVEL      0.0558        C  2 --  C  7          +13.8% ( 55.0%)    25.5%
 RED. MASS   5.3937        C  9 --  H 21          +13.1% ( 53.5%)     9.6%
 EFF. MASS  11.8813        C  7 --  H 22          +12.8% ( 53.0%)     9.8%

 VIBRATION   52   52A       ATOM PAIR        ENERGY CONTRIBUTION    RADIAL
 FREQ.      1890.53        C  8 --  C 10          +43.5% ( 97.4%)    96.3%
 T-DIPOLE    0.3103        C  3 --  C  8          +14.4% ( 56.0%)    55.7%
 TRAVEL      0.0550        C  6 --  C 10          +14.1% ( 55.4%)    56.4%
 RED. MASS   5.3499        C  8 --  H 23          +13.3% ( 53.9%)     3.5%
 EFF. MASS  11.7901        C 10 --  H 24          +13.1% ( 53.4%)     3.5%

 VIBRATION   53   53A       ATOM PAIR        ENERGY CONTRIBUTION    RADIAL
 FREQ.      2937.42        C  3 --  H 13          +94.7% ( 99.6%)   100.0%
 T-DIPOLE    0.0795        C  3 --  C  8           +1.1% ( 10.8%)    13.5%
 TRAVEL      0.1256        C  3 --  C  4           +1.1% ( 10.7%)    13.3%
 RED. MASS   0.9132        C  1 --  C  3           +1.1% ( 10.7%)    15.4%
 EFF. MASS   1.4552

 VIBRATION   54   54A       ATOM PAIR        ENERGY CONTRIBUTION    RADIAL
 FREQ.      2973.08        C  5 --  H 17          +50.7% ( 73.9%)    97.0%
 T-DIPOLE    0.0353        C  5 --  H 16          +44.9% ( 69.6%)    96.2%
 TRAVEL      0.1213        C  1 --  H 11           +1.9% ( 14.2%)    99.8%
 RED. MASS   0.4980        C  1 --  C  5           +1.2% ( 11.2%)     0.4%
 EFF. MASS   1.5406

 VIBRATION   55   55A       ATOM PAIR        ENERGY CONTRIBUTION    RADIAL
 FREQ.      3000.93        C  2 --  H 12          +64.4% ( 82.2%)   100.0%
 T-DIPOLE    0.0998        C  1 --  H 11          +29.3% ( 55.4%)   100.0%
 TRAVEL      0.1241        C  1 --  C  2           +1.1% ( 10.8%)     1.1%
 RED. MASS   0.5110        C  2 --  C  4           +0.8% (  9.1%)    13.3%
 EFF. MASS   1.4592

 VIBRATION   56   56A       ATOM PAIR        ENERGY CONTRIBUTION    RADIAL
 FREQ.      3007.16        C  1 --  H 11          +63.9% ( 81.7%)   100.0%
 T-DIPOLE    0.1747        C  2 --  H 12          +29.2% ( 55.2%)   100.0%
 TRAVEL      0.1244        C  5 --  H 17           +1.2% ( 11.2%)    99.4%
 RED. MASS   0.5022        C  1 --  C  2           +1.1% ( 10.5%)    86.3%
 EFF. MASS   1.4497

 VIBRATION   57   57A       ATOM PAIR        ENERGY CONTRIBUTION    RADIAL
 FREQ.      3035.02        C  8 --  H 23          +94.0% ( 98.2%)   100.0%
 T-DIPOLE    0.2866        C 10 --  H 24           +3.3% ( 18.3%)    99.6%
 TRAVEL      0.1223        C  3 --  C  8           +1.3% ( 11.5%)    15.8%
 RED. MASS   0.8662        C  8 --  C 10           +1.3% ( 11.3%)    39.9%
 EFF. MASS   1.4856

 VIBRATION   58   58A       ATOM PAIR        ENERGY CONTRIBUTION    RADIAL
 FREQ.      3037.76        C 10 --  H 24          +90.9% ( 97.0%)   100.0%
 T-DIPOLE    0.1947        C  8 --  H 23           +3.1% ( 17.8%)    99.3%
 TRAVEL      0.1199        C  8 --  C 10           +1.7% ( 13.3%)    39.1%
 RED. MASS   0.8244        C  6 --  H 19           +1.4% ( 12.1%)    98.1%
 EFF. MASS   1.5432

 VIBRATION   59   59A       ATOM PAIR        ENERGY CONTRIBUTION    RADIAL
 FREQ.      3041.06        C  4 --  H 14          +52.0% ( 75.1%)    97.4%
 T-DIPOLE    0.0947        C  4 --  H 15          +42.1% ( 67.6%)    96.2%
 TRAVEL      0.1199        C  2 --  H 12           +1.6% ( 13.3%)    99.9%
 RED. MASS   0.4971        C  1 --  C  4           +1.1% ( 11.0%)     0.1%
 EFF. MASS   1.5427

 VIBRATION   60   60A       ATOM PAIR        ENERGY CONTRIBUTION    RADIAL
 FREQ.      3050.31        C  5 --  H 16          +53.0% ( 71.9%)    98.0%
 T-DIPOLE    0.0854        C  5 --  H 17          +45.1% ( 66.3%)    97.0%
 TRAVEL      0.1312        C  1 --  C  5           +0.7% (  8.3%)    41.8%
 RED. MASS   0.4828        C  5 --  C  9           +0.7% (  8.2%)    30.9%
 EFF. MASS   1.2841

 VIBRATION   61   61A       ATOM PAIR        ENERGY CONTRIBUTION    RADIAL
 FREQ.      3069.95        C  6 --  H 18          +49.1% ( 72.3%)    97.1%
 T-DIPOLE    0.0239        C  6 --  H 20          +49.0% ( 72.2%)    97.0%
 TRAVEL      0.1210        C  6 --  C 10           +1.0% ( 10.2%)     0.0%
 RED. MASS   0.5093        C  6 --  H 19           +0.9% (  9.9%)     0.0%
 EFF. MASS   1.5010

 VIBRATION   62   62A       ATOM PAIR        ENERGY CONTRIBUTION    RADIAL
 FREQ.      3075.77        C  6 --  H 19          +62.7% ( 81.6%)    98.9%
 T-DIPOLE    0.0593        C  6 --  H 20          +17.1% ( 42.7%)    84.9%
 TRAVEL      0.1205        C  6 --  H 18          +17.1% ( 42.6%)    84.9%
 RED. MASS   0.4794        C 10 --  H 24           +1.9% ( 14.4%)   100.0%
 EFF. MASS   1.5086

 VIBRATION   63   63A       ATOM PAIR        ENERGY CONTRIBUTION    RADIAL
 FREQ.      3103.48        C  4 --  H 15          +54.6% ( 73.3%)    97.8%
 T-DIPOLE    0.0873        C  4 --  H 14          +43.3% ( 65.3%)    96.3%
 TRAVEL      0.1302        C  1 --  C  4           +0.7% (  8.2%)    99.5%
 RED. MASS   0.4894        C  2 --  C  4           +0.7% (  8.2%)    49.4%
 EFF. MASS   1.2820

 VIBRATION   64   64A       ATOM PAIR        ENERGY CONTRIBUTION    RADIAL
 FREQ.      3115.13        C  9 --  H 21          +61.3% ( 79.5%)   100.0%
 T-DIPOLE    0.3599        C  7 --  H 22          +36.1% ( 61.0%)   100.0%
 TRAVEL      0.1215        C  7 --  C  9           +1.1% ( 10.8%)     1.5%
 RED. MASS   0.4961        C  5 --  C  9           +0.9% (  9.8%)    25.8%
 EFF. MASS   1.4659

 VIBRATION   65   65A       ATOM PAIR        ENERGY CONTRIBUTION    RADIAL
 FREQ.      3134.48        C  7 --  H 22          +60.3% ( 79.1%)    99.9%
 T-DIPOLE    0.3554        C  9 --  H 21          +35.3% ( 60.5%)    99.9%
 TRAVEL      0.1144        C  7 --  C  9           +2.4% ( 15.9%)    98.2%
 RED. MASS   0.4976        C  2 --  C  7           +1.1% ( 10.9%)    20.8%
 EFF. MASS   1.6432

 VIBRATION   66   66A       ATOM PAIR        ENERGY CONTRIBUTION    RADIAL
 FREQ.      3169.60        C  6 --  H 19          +34.5% ( 56.5%)    97.2%
 T-DIPOLE    0.0740        C  6 --  H 18          +32.6% ( 55.0%)    97.0%
 TRAVEL      0.1366        C  6 --  H 20          +32.6% ( 55.0%)    97.0%
 RED. MASS   0.3272        C  6 --  C 10           +0.3% (  5.4%)   100.0%
 EFF. MASS   1.1395

 SYMMETRY NUMBER FOR POINT-GROUP C1  =  1


          SYSTEM IS A GROUND STATE


    NULL



          MOLECULE IS NOT LINEAR

          THERE ARE 66 GENUINE VIBRATIONS IN THIS SYSTEM
          THIS THERMODYNAMICS CALCULATION IS LIMITED TO
          MOLECULES WHICH HAVE NO INTERNAL ROTATIONS




                    CALCULATED THERMODYNAMIC PROPERTIES
                                          *
   TEMP. (K)   PARTITION FUNCTION   H.O.F.    ENTHALPY  HEAT CAPACITY ENTROPY
                                   KCAL/MOL   CAL/MOLE    CAL/K/MOL  CAL/K/MOL


 298.00  VIB.     0.2817D+03                  4143.0472    30.6281    25.1125
         ROT.     0.6924D+06                   888.2813     2.9808    29.7047
         INT.     0.1951D+09                  5031.3285    33.6089    54.8171
         TRA.     0.1503D+28                  1480.4688     4.9680    40.5931
         TOT.                       24.404    6511.7974    38.5769    95.4102

 200.00  VIB.     0.3016D+02                  1768.9186    18.3589    15.6142
         ROT.     0.3807D+06                   596.1620     2.9808    28.5160
         INT.     0.1148D+08                  2365.0805    21.3398    44.1302
         TRA.     0.8266D+27                   993.6033     4.9680    38.6119
         TOT.                       21.251    3358.6838    26.3078    82.7421

 210.00  VIB.     0.3770D+02                  1957.8955    19.4440    16.5360
         ROT.     0.4096D+06                   625.9700     2.9808    28.6614
         INT.     0.1544D+08                  2583.8655    22.4248    45.1974
         TRA.     0.8893D+27                  1043.2834     4.9680    38.8543
         TOT.                       21.520    3627.1489    27.3928    84.0517

 220.00  VIB.     0.4715D+02                  2157.9485    20.5741    17.4664
         ROT.     0.4392D+06                   655.7781     2.9808    28.8001
         INT.     0.2071D+08                  2813.7267    23.5549    46.2665
         TRA.     0.9536D+27                  1092.9636     4.9680    39.0854
         TOT.                       21.799    3906.6902    28.5229    85.3519

 230.00  VIB.     0.5905D+02                  2369.5229    21.7480    18.4067
         ROT.     0.4695D+06                   685.5862     2.9808    28.9326
         INT.     0.2772D+08                  3055.1092    24.7288    47.3393
         TRA.     0.1019D+28                  1142.6437     4.9680    39.3063
         TOT.                       22.090    4197.7529    29.6968    86.6456

 240.00  VIB.     0.7402D+02                  2593.0456    22.9632    19.3578
         ROT.     0.5005D+06                   715.3943     2.9808    29.0594
         INT.     0.3704D+08                  3308.4399    25.9440    48.4173
         TRA.     0.1087D+28                  1192.3239     4.9680    39.5177
         TOT.                       22.393    4500.7638    30.9120    87.9350

 250.00  VIB.     0.9289D+02                  2828.9144    24.2166    20.3205
         ROT.     0.5321D+06                   745.2024     2.9808    29.1811
         INT.     0.4942D+08                  3574.1169    27.1974    49.5017
         TRA.     0.1155D+28                  1242.0041     4.9680    39.7205
         TOT.                       22.709    4816.1209    32.1654    89.2222

 260.00  VIB.     0.1167D+03                  3077.4910    25.5041    21.2953
         ROT.     0.5643D+06                   775.0105     2.9808    29.2980
         INT.     0.6587D+08                  3852.5016    28.4849    50.5933
         TRA.     0.1225D+28                  1291.6842     4.9680    39.9154
         TOT.                       23.037    5144.1858    33.4529    90.5087

 270.00  VIB.     0.1469D+03                  3339.0950    26.8213    22.2824
         ROT.     0.5972D+06                   804.8186     2.9808    29.4105
         INT.     0.8771D+08                  4143.9136    29.8021    51.6930
         TRA.     0.1297D+28                  1341.3644     4.9680    40.1029
         TOT.                       23.378    5485.2780    34.7701    91.7958

 280.00  VIB.     0.1851D+03                  3614.0007    28.1636    23.2821
         ROT.     0.6306D+06                   834.6267     2.9808    29.5189
         INT.     0.1167D+09                  4448.6274    31.1444    52.8010
         TRA.     0.1369D+28                  1391.0445     4.9680    40.2835
         TOT.                       23.732    5839.6720    36.1125    93.0845

 290.00  VIB.     0.2336D+03                  3902.4355    29.5263    24.2941
         ROT.     0.6647D+06                   864.4348     2.9808    29.6235
         INT.     0.1553D+09                  4766.8704    32.5072    53.9176
         TRA.     0.1443D+28                  1440.7247     4.9680    40.4579
         TOT.                       24.100    6207.5951    37.4752    94.3755

 300.00  VIB.     0.2953D+03                  4204.5800    30.9048    25.3183
         ROT.     0.6994D+06                   894.2429     2.9808    29.7246
         INT.     0.2065D+09                  5098.8229    33.8856    55.0429
         TRA.     0.1518D+28                  1490.4049     4.9680    40.6263
         TOT.                       24.482    6589.2278    38.8536    95.6692

 310.00  VIB.     0.3738D+03                  4520.5684    32.2944    26.3543
         ROT.     0.7347D+06                   924.0510     2.9808    29.8223
         INT.     0.2746D+09                  5444.6195    35.2752    56.1766
         TRA.     0.1595D+28                  1540.0850     4.9680    40.7892
         TOT.                       24.877    6984.7045    40.2432    96.9658

 320.00  VIB.     0.4741D+03                  4850.4911    33.6909    27.4016
         ROT.     0.7705D+06                   953.8591     2.9808    29.9170
         INT.     0.3653D+09                  5804.3502    36.6717    57.3186
         TRA.     0.1673D+28                  1589.7652     4.9680    40.9469
         TOT.                       25.287    7394.1154    41.6397    98.2655

 330.00  VIB.     0.6022D+03                  5194.3963    35.0903    28.4597
         ROT.     0.8069D+06                   983.6672     2.9808    30.0087
         INT.     0.4859D+09                  6178.0636    38.0711    58.4684
         TRA.     0.1752D+28                  1639.4454     4.9680    41.0998
         TOT.                       25.710    7817.5089    43.0391    99.5682

 340.00  VIB.     0.7661D+03                  5552.2940    36.4888    29.5281
         ROT.     0.8438D+06                  1013.4753     2.9808    30.0977
         INT.     0.6465D+09                  6565.7694    39.4696    59.6258
         TRA.     0.1832D+28                  1689.1255     4.9680    41.2481
         TOT.                       26.147    8254.8949    44.4376   100.8739

 350.00  VIB.     0.9764D+03                  5924.1584    37.8831    30.6059
         ROT.     0.8813D+06                  1043.2834     2.9808    30.1841
         INT.     0.8606D+09                  6967.4419    40.8639    60.7900
         TRA.     0.1914D+28                  1738.8057     4.9680    41.3921
         TOT.                       26.599    8706.2475    45.8319   102.1821

 360.00  VIB.     0.1246D+04                  6309.9317    39.2701    31.6926
         ROT.     0.9194D+06                  1073.0915     2.9808    30.2681
         INT.     0.1146D+10                  7383.0232    42.2509    61.9606
         TRA.     0.1996D+28                  1788.4859     4.9680    41.5321
         TOT.                       27.064    9171.5091    47.2189   103.4927

 370.00  VIB.     0.1594D+04                  6709.5274    40.6471    32.7873
         ROT.     0.9580D+06                  1102.8996     2.9808    30.3497
         INT.     0.1527D+10                  7812.4270    43.6280    63.1371
         TRA.     0.2080D+28                  1838.1660     4.9680    41.6682
         TOT.                       27.543    9650.5930    48.5960   104.8053

 380.00  VIB.     0.2041D+04                  7122.8335    42.0118    33.8895
         ROT.     0.9971D+06                  1132.7077     2.9808    30.4292
         INT.     0.2035D+10                  8255.5412    44.9926    64.3187
         TRA.     0.2165D+28                  1887.8462     4.9680    41.8007
         TOT.                       28.036   10143.3874    49.9607   106.1194

 390.00  VIB.     0.2618D+04                  7549.7161    43.3621    34.9982
         ROT.     0.1037D+07                  1162.5158     2.9808    30.5067
         INT.     0.2714D+10                  8712.2319    46.3429    65.5049
         TRA.     0.2251D+28                  1937.5263     4.9680    41.9297
         TOT.                       28.542   10649.7583    51.3110   107.4346

 400.00  VIB.     0.3364D+04                  7990.0224    44.6963    36.1129
         ROT.     0.1077D+07                  1192.3239     2.9808    30.5821
         INT.     0.3622D+10                  9182.3463    47.6771    66.6951
         TRA.     0.2338D+28                  1987.2065     4.9680    42.0555
         TOT.                       29.062   11169.5528    52.6451   108.7506

   *: NOTE: HEATS OF FORMATION ARE RELATIVE TO THE
            ELEMENTS IN THEIR STANDARD STATE AT 298K
              (=  Standard Enthalpy of Formation).

            Hvib:  Zero-point energy is not included.
                   frequencies of less than zero cm-1 are not included.
            Hrot = (3/2)RT
            Htra = (3/2)RT + pV = (5/2)RT

            Heat capacity is Cp, not Cv

           For more information, see: HTTP://OpenMOPAC.net/Manual/thermochemistry.html


           FORCE CONSTANT IN CARTESIAN COORDINATES (Millidynes/A)

    ATOM   CHEMICAL       X               Y               Z
   NUMBER   SYMBOL  FORCE CONSTANT  FORCE CONSTANT  FORCE CONSTANT

      1       C        7.561010        7.868835        8.992115
      2       C        7.582141        8.186248        9.567513
      3       C        7.871959        7.835665        9.347029
      4       C        7.682216        7.909701        8.681790
      5       C        9.467707        8.123372        7.712758
      6       C        8.284930        8.284420        8.885439
      7       C       14.536219        4.077325        8.905511
      8       C        8.920462        9.131502        9.372080
      9       C       11.866327        4.489924       10.931845
     10       C        8.776830        8.989711        9.428992
     11       H        1.516872        1.452008        3.434595
     12       H        1.567105        1.534409        3.231117
     13       H        1.283965        1.386577        3.567659
     14       H        1.423723        1.371025        3.828486
     15       H        1.526897        1.537198        3.562278
     16       H        1.776250        3.776647        0.832256
     17       H        2.056896        2.285712        2.028843
     18       H        5.225590        0.756620        0.681660
     19       H        1.305274        1.401442        4.064608
     20       H        0.784725        5.202584        0.676532
     21       H        0.713589        1.312495        4.397233
     22       H        4.966270        0.456694        0.992389
     23       H        1.001063        1.082176        4.128360
     24       H        0.998723        1.081365        4.140620



 TOTAL CPU TIME:             4.11 SECONDS

 == MOPAC DONE ==
