 *******************************************************************************
 ** Site#: 14399           For non-commercial use only        Version 13.159M **
 *******************************************************************************
 ** Cite this work as: MOPAC2012, James J. P. Stewart, Stewart Computational  **
 ** Chemistry, Version 13.159M web: HTTP://OpenMOPAC.net  Days remaining:   6 **
 *******************************************************************************
 **                                                                           **
 **                                MOPAC2012                                  **
 **                                                                           **
 *******************************************************************************

                            PM3 CALCULATION RESULTS


 *******************************************************************************
 *  CALCULATION DONE:                                Mon Jun  2 11:13:00 2014  *
 *  PM3      - The PM3 Hamiltonian to be used
 *  PRECISE  - CRITERIA TO BE INCREASED BY 100 TIMES
 *  NOSYM    - POINT-GROUP SYMMETRY SET TO C1
 *  T=       - A TIME OF 172800.0 SECONDS REQUESTED
 *  DUMP=N   - RESTART FILE WRITTEN EVERY  7200.000 SECONDS
 *******************************************************************************
pm3  precise nosym
 InChI=1S/C10H14/c1-2-3-4-7-10-8-5-6-9-10/h2-3,5-6,8-10H,4,7H2,1H3

   ATOM   CHEMICAL          X               Y               Z
  NUMBER   SYMBOL      (ANGSTROMS)     (ANGSTROMS)     (ANGSTROMS)
 
     1       C         -1.15720000  *   0.43840000  *  -0.00980000  *
     2       C         -0.64440000  *  -0.17630000  *  -1.32140000  *
     3       C          0.64380000  *  -0.99470000  *  -1.18510000  *
     4       C          3.61720000  *   0.46510000  *   0.83160000  *
     5       C         -2.42670000  *   1.20600000  *  -0.21940000  *
     6       C         -1.62840000  *  -0.58020000  *   0.98440000  *
     7       C          1.81290000  *  -0.16000000  *  -0.74150000  *
     8       C          2.46420000  *  -0.38880000  *   0.40580000  *
     9       C         -3.41460000  *   0.70620000  *   0.50350000  *
    10       C         -2.91080000  *  -0.42000000  *   1.26320000  *
    11       H         -0.39480000  *   1.10730000  *   0.45180000  *
    12       H         -0.47180000  *   0.63870000  *  -2.06360000  *
    13       H         -1.42940000  *  -0.83490000  *  -1.76350000  *
    14       H          0.46580000  *  -1.86910000  *  -0.51680000  *
    15       H          0.90060000  *  -1.42480000  *  -2.18020000  *
    16       H          4.43730000  *   0.41010000  *   0.08030000  *
    17       H          3.29160000  *   1.52390000  *   0.94670000  *
    18       H          4.01320000  *   0.11170000  *   1.81020000  *
    19       H         -2.53180000  *   2.06610000  *  -0.87320000  *
    20       H         -1.00600000  *  -1.34530000  *   1.43740000  *
    21       H          2.15750000  *  -1.20470000  *   1.05970000  *
    22       H          2.12260000  *   0.66420000  *  -1.38420000  *
    23       H         -4.42960000  *   1.08880000  *   0.52630000  *
    24       H         -3.48120000  *  -1.02770000  *   1.95780000  *
 


          CARTESIAN COORDINATES 

    NO.       ATOM         X         Y         Z

     1         C       -1.1572    0.4384   -0.0098
     2         C       -0.6444   -0.1763   -1.3214
     3         C        0.6438   -0.9947   -1.1851
     4         C        3.6172    0.4651    0.8316
     5         C       -2.4267    1.2060   -0.2194
     6         C       -1.6284   -0.5802    0.9844
     7         C        1.8129   -0.1600   -0.7415
     8         C        2.4642   -0.3888    0.4058
     9         C       -3.4146    0.7062    0.5035
    10         C       -2.9108   -0.4200    1.2632
    11         H       -0.3948    1.1073    0.4518
    12         H       -0.4718    0.6387   -2.0636
    13         H       -1.4294   -0.8349   -1.7635
    14         H        0.4658   -1.8691   -0.5168
    15         H        0.9006   -1.4248   -2.1802
    16         H        4.4373    0.4101    0.0803
    17         H        3.2916    1.5239    0.9467
    18         H        4.0132    0.1117    1.8102
    19         H       -2.5318    2.0661   -0.8732
    20         H       -1.0060   -1.3453    1.4374
    21         H        2.1575   -1.2047    1.0597
    22         H        2.1226    0.6642   -1.3842
    23         H       -4.4296    1.0888    0.5263
    24         H       -3.4812   -1.0277    1.9578

  H: (PM3): J. J. P. STEWART, J. COMP. CHEM. 10, 209 (1989).
  C: (PM3): J. J. P. STEWART, J. COMP. CHEM. 10, 209 (1989).

           Empirical Formula: C10 H14  =    24 atoms



      MOLECULAR POINT GROUP   :   C1  


      RHF CALCULATION, NO. OF DOUBLY OCCUPIED LEVELS =   27

      Geometry optimization using EF

          DIAGONAL MATRIX USED AS START HESSIAN

 CYCLE:     1 TIME:   0.010 TIME LEFT:  2.00D  GRAD.:   112.857 HEAT: 37.10089
 CYCLE:     2 TIME:   0.022 TIME LEFT:  2.00D  GRAD.:    69.233 HEAT: 35.30790
 CYCLE:     3 TIME:   0.008 TIME LEFT:  2.00D  GRAD.:    40.071 HEAT: 34.14727
 CYCLE:     4 TIME:   0.015 TIME LEFT:  2.00D  GRAD.:    53.729 HEAT: 33.99511
 CYCLE:     5 TIME:   0.008 TIME LEFT:  2.00D  GRAD.:    56.666 HEAT: 33.91284
 CYCLE:     6 TIME:   0.008 TIME LEFT:  2.00D  GRAD.:    58.306 HEAT: 33.75103
 CYCLE:     7 TIME:   0.008 TIME LEFT:  2.00D  GRAD.:    47.321 HEAT: 33.59687
 CYCLE:     8 TIME:   0.008 TIME LEFT:  2.00D  GRAD.:    41.476 HEAT: 33.36254
 CYCLE:     9 TIME:   0.008 TIME LEFT:  2.00D  GRAD.:    39.816 HEAT: 33.27806
 CYCLE:    10 TIME:   0.008 TIME LEFT:  2.00D  GRAD.:    35.901 HEAT: 33.11159
 CYCLE:    11 TIME:   0.014 TIME LEFT:  2.00D  GRAD.:    18.126 HEAT: 32.89935
 CYCLE:    12 TIME:   0.014 TIME LEFT:  2.00D  GRAD.:    11.444 HEAT: 32.84203
 CYCLE:    13 TIME:   0.008 TIME LEFT:  2.00D  GRAD.:     9.455 HEAT: 32.80016
 CYCLE:    14 TIME:   0.014 TIME LEFT:  2.00D  GRAD.:     7.978 HEAT: 32.77883
 CYCLE:    15 TIME:   0.008 TIME LEFT:  2.00D  GRAD.:     5.560 HEAT: 32.75236
 CYCLE:    16 TIME:   0.008 TIME LEFT:  2.00D  GRAD.:     9.892 HEAT: 32.73893
 CYCLE:    17 TIME:   0.008 TIME LEFT:  2.00D  GRAD.:     8.202 HEAT: 32.71538
 CYCLE:    18 TIME:   0.014 TIME LEFT:  2.00D  GRAD.:     8.203 HEAT: 32.70562
 CYCLE:    19 TIME:   0.008 TIME LEFT:  2.00D  GRAD.:     4.433 HEAT: 32.68484
 CYCLE:    20 TIME:   0.020 TIME LEFT:  2.00D  GRAD.:     4.334 HEAT: 32.67882
 CYCLE:    21 TIME:   0.007 TIME LEFT:  2.00D  GRAD.:     3.350 HEAT: 32.67056
 CYCLE:    22 TIME:   0.008 TIME LEFT:  2.00D  GRAD.:     6.471 HEAT: 32.65382
 CYCLE:    23 TIME:   0.008 TIME LEFT:  2.00D  GRAD.:     5.317 HEAT: 32.62959
 CYCLE:    24 TIME:   0.008 TIME LEFT:  2.00D  GRAD.:     6.625 HEAT: 32.62655
 CYCLE:    25 TIME:   0.008 TIME LEFT:  2.00D  GRAD.:     3.391 HEAT: 32.61509
 CYCLE:    26 TIME:   0.008 TIME LEFT:  2.00D  GRAD.:     2.972 HEAT: 32.61118
 CYCLE:    27 TIME:   0.007 TIME LEFT:  2.00D  GRAD.:     2.587 HEAT: 32.60644
 CYCLE:    28 TIME:   0.008 TIME LEFT:  2.00D  GRAD.:     2.748 HEAT: 32.60003
 CYCLE:    29 TIME:   0.008 TIME LEFT:  2.00D  GRAD.:     3.827 HEAT: 32.59718
 CYCLE:    30 TIME:   0.008 TIME LEFT:  2.00D  GRAD.:     2.189 HEAT: 32.59220
 CYCLE:    31 TIME:   0.007 TIME LEFT:  2.00D  GRAD.:     1.924 HEAT: 32.58965
 CYCLE:    32 TIME:   0.008 TIME LEFT:  2.00D  GRAD.:     1.814 HEAT: 32.58687
 CYCLE:    33 TIME:   0.008 TIME LEFT:  2.00D  GRAD.:     1.764 HEAT: 32.58222
 CYCLE:    34 TIME:   0.008 TIME LEFT:  2.00D  GRAD.:     2.426 HEAT: 32.57893
 CYCLE:    35 TIME:   0.008 TIME LEFT:  2.00D  GRAD.:     2.050 HEAT: 32.57573
 CYCLE:    36 TIME:   0.008 TIME LEFT:  2.00D  GRAD.:     1.587 HEAT: 32.57203
 CYCLE:    37 TIME:   0.008 TIME LEFT:  2.00D  GRAD.:     1.550 HEAT: 32.56577
 CYCLE:    38 TIME:   0.008 TIME LEFT:  2.00D  GRAD.:     1.744 HEAT: 32.56051
 CYCLE:    39 TIME:   0.008 TIME LEFT:  2.00D  GRAD.:     1.943 HEAT: 32.55534
 CYCLE:    40 TIME:   0.008 TIME LEFT:  2.00D  GRAD.:     2.092 HEAT: 32.54828
 CYCLE:    41 TIME:   0.008 TIME LEFT:  2.00D  GRAD.:     2.378 HEAT: 32.53970
 CYCLE:    42 TIME:   0.008 TIME LEFT:  2.00D  GRAD.:     2.813 HEAT: 32.52778
 CYCLE:    43 TIME:   0.008 TIME LEFT:  2.00D  GRAD.:     2.577 HEAT: 32.51577
 CYCLE:    44 TIME:   0.008 TIME LEFT:  2.00D  GRAD.:     2.713 HEAT: 32.49678
 CYCLE:    45 TIME:   0.008 TIME LEFT:  2.00D  GRAD.:     2.846 HEAT: 32.47866
 CYCLE:    46 TIME:   0.008 TIME LEFT:  2.00D  GRAD.:     3.226 HEAT: 32.46021
 CYCLE:    47 TIME:   0.008 TIME LEFT:  2.00D  GRAD.:     3.699 HEAT: 32.42948
 CYCLE:    48 TIME:   0.008 TIME LEFT:  2.00D  GRAD.:     4.472 HEAT: 32.40084
 CYCLE:    49 TIME:   0.008 TIME LEFT:  2.00D  GRAD.:     3.898 HEAT: 32.37314
 CYCLE:    50 TIME:   0.008 TIME LEFT:  2.00D  GRAD.:     2.802 HEAT: 32.35396
 CYCLE:    51 TIME:   0.008 TIME LEFT:  2.00D  GRAD.:     2.744 HEAT: 32.33503
 CYCLE:    52 TIME:   0.008 TIME LEFT:  2.00D  GRAD.:     3.283 HEAT: 32.31253
 CYCLE:    53 TIME:   0.008 TIME LEFT:  2.00D  GRAD.:     3.511 HEAT: 32.28467
 CYCLE:    54 TIME:   0.008 TIME LEFT:  2.00D  GRAD.:     3.803 HEAT: 32.26464
 CYCLE:    55 TIME:   0.008 TIME LEFT:  2.00D  GRAD.:     3.107 HEAT: 32.24518
 CYCLE:    56 TIME:   0.008 TIME LEFT:  2.00D  GRAD.:     2.726 HEAT: 32.22810
 CYCLE:    57 TIME:   0.008 TIME LEFT:  2.00D  GRAD.:     3.099 HEAT: 32.20129
 CYCLE:    58 TIME:   0.008 TIME LEFT:  2.00D  GRAD.:     2.606 HEAT: 32.18836
 CYCLE:    59 TIME:   0.008 TIME LEFT:  2.00D  GRAD.:     2.590 HEAT: 32.17531
 CYCLE:    60 TIME:   0.008 TIME LEFT:  2.00D  GRAD.:     2.326 HEAT: 32.16267
 CYCLE:    61 TIME:   0.008 TIME LEFT:  2.00D  GRAD.:     2.487 HEAT: 32.14854
 CYCLE:    62 TIME:   0.008 TIME LEFT:  2.00D  GRAD.:     2.624 HEAT: 32.13696
 CYCLE:    63 TIME:   0.008 TIME LEFT:  2.00D  GRAD.:     2.012 HEAT: 32.12972
 CYCLE:    64 TIME:   0.008 TIME LEFT:  2.00D  GRAD.:     1.879 HEAT: 32.12373
 CYCLE:    65 TIME:   0.008 TIME LEFT:  2.00D  GRAD.:     1.907 HEAT: 32.11660
 CYCLE:    66 TIME:   0.008 TIME LEFT:  2.00D  GRAD.:     2.352 HEAT: 32.10617
 CYCLE:    67 TIME:   0.008 TIME LEFT:  2.00D  GRAD.:     3.050 HEAT: 32.08809
 CYCLE:    68 TIME:   0.008 TIME LEFT:  2.00D  GRAD.:     3.527 HEAT: 32.06542
 CYCLE:    69 TIME:   0.008 TIME LEFT:  2.00D  GRAD.:     3.598 HEAT: 32.04187
 CYCLE:    70 TIME:   0.008 TIME LEFT:  2.00D  GRAD.:     3.442 HEAT: 32.01625
 CYCLE:    71 TIME:   0.008 TIME LEFT:  2.00D  GRAD.:     5.584 HEAT: 31.99015
 CYCLE:    72 TIME:   0.008 TIME LEFT:  2.00D  GRAD.:     6.788 HEAT: 31.96103
 CYCLE:    73 TIME:   0.008 TIME LEFT:  2.00D  GRAD.:     6.331 HEAT: 31.91279
 CYCLE:    74 TIME:   0.008 TIME LEFT:  2.00D  GRAD.:     6.281 HEAT: 31.84885
 CYCLE:    75 TIME:   0.008 TIME LEFT:  2.00D  GRAD.:     3.318 HEAT: 31.82395
 CYCLE:    76 TIME:   0.008 TIME LEFT:  2.00D  GRAD.:     6.771 HEAT: 31.80416
 CYCLE:    77 TIME:   0.008 TIME LEFT:  2.00D  GRAD.:     3.158 HEAT: 31.77866
 CYCLE:    78 TIME:   0.008 TIME LEFT:  2.00D  GRAD.:     2.579 HEAT: 31.75727
 CYCLE:    79 TIME:   0.008 TIME LEFT:  2.00D  GRAD.:     2.919 HEAT: 31.73668
 CYCLE:    80 TIME:   0.008 TIME LEFT:  2.00D  GRAD.:     2.868 HEAT: 31.72565
 CYCLE:    81 TIME:   0.008 TIME LEFT:  2.00D  GRAD.:     2.538 HEAT: 31.71329
 CYCLE:    82 TIME:   0.008 TIME LEFT:  2.00D  GRAD.:     2.632 HEAT: 31.70269
 CYCLE:    83 TIME:   0.008 TIME LEFT:  2.00D  GRAD.:     1.812 HEAT: 31.69528
 CYCLE:    84 TIME:   0.008 TIME LEFT:  2.00D  GRAD.:     3.726 HEAT: 31.69245
 CYCLE:    85 TIME:   0.008 TIME LEFT:  2.00D  GRAD.:     1.320 HEAT: 31.68550
 CYCLE:    86 TIME:   0.008 TIME LEFT:  2.00D  GRAD.:     0.955 HEAT: 31.68320
 CYCLE:    87 TIME:   0.008 TIME LEFT:  2.00D  GRAD.:     0.771 HEAT: 31.68048
 CYCLE:    88 TIME:   0.008 TIME LEFT:  2.00D  GRAD.:     0.631 HEAT: 31.67958
 CYCLE:    89 TIME:   0.008 TIME LEFT:  2.00D  GRAD.:     0.384 HEAT: 31.67878
 CYCLE:    90 TIME:   0.008 TIME LEFT:  2.00D  GRAD.:     0.329 HEAT: 31.67843
 CYCLE:    91 TIME:   0.008 TIME LEFT:  2.00D  GRAD.:     0.333 HEAT: 31.67817
 CYCLE:    92 TIME:   0.008 TIME LEFT:  2.00D  GRAD.:     0.325 HEAT: 31.67793
 CYCLE:    93 TIME:   0.008 TIME LEFT:  2.00D  GRAD.:     0.281 HEAT: 31.67766
 CYCLE:    94 TIME:   0.008 TIME LEFT:  2.00D  GRAD.:     0.295 HEAT: 31.67746
 CYCLE:    95 TIME:   0.008 TIME LEFT:  2.00D  GRAD.:     0.278 HEAT: 31.67728
 CYCLE:    96 TIME:   0.008 TIME LEFT:  2.00D  GRAD.:     0.233 HEAT: 31.67716
 CYCLE:    97 TIME:   0.008 TIME LEFT:  2.00D  GRAD.:     0.209 HEAT: 31.67700
 CYCLE:    98 TIME:   0.008 TIME LEFT:  2.00D  GRAD.:     0.195 HEAT: 31.67691
 CYCLE:    99 TIME:   0.008 TIME LEFT:  2.00D  GRAD.:     0.186 HEAT: 31.67680
 CYCLE:   100 TIME:   0.008 TIME LEFT:  2.00D  GRAD.:     0.186 HEAT: 31.67669
 CYCLE:   101 TIME:   0.008 TIME LEFT:  2.00D  GRAD.:     0.205 HEAT: 31.67658
 CYCLE:   102 TIME:   0.008 TIME LEFT:  2.00D  GRAD.:     0.224 HEAT: 31.67647
 CYCLE:   103 TIME:   0.008 TIME LEFT:  2.00D  GRAD.:     0.256 HEAT: 31.67635
 CYCLE:   104 TIME:   0.008 TIME LEFT:  2.00D  GRAD.:     0.279 HEAT: 31.67618
 CYCLE:   105 TIME:   0.008 TIME LEFT:  2.00D  GRAD.:     0.356 HEAT: 31.67588
 CYCLE:   106 TIME:   0.008 TIME LEFT:  2.00D  GRAD.:     0.338 HEAT: 31.67566
 CYCLE:   107 TIME:   0.008 TIME LEFT:  2.00D  GRAD.:     0.334 HEAT: 31.67528
 CYCLE:   108 TIME:   0.008 TIME LEFT:  2.00D  GRAD.:     0.302 HEAT: 31.67515
 CYCLE:   109 TIME:   0.008 TIME LEFT:  2.00D  GRAD.:     0.280 HEAT: 31.67487
 CYCLE:   110 TIME:   0.008 TIME LEFT:  2.00D  GRAD.:     0.410 HEAT: 31.67451
 CYCLE:   111 TIME:   0.008 TIME LEFT:  2.00D  GRAD.:     0.605 HEAT: 31.67392
 CYCLE:   112 TIME:   0.008 TIME LEFT:  2.00D  GRAD.:     0.720 HEAT: 31.67299
 CYCLE:   113 TIME:   0.008 TIME LEFT:  2.00D  GRAD.:     0.540 HEAT: 31.67187
 CYCLE:   114 TIME:   0.008 TIME LEFT:  2.00D  GRAD.:     0.383 HEAT: 31.67144
 CYCLE:   115 TIME:   0.008 TIME LEFT:  2.00D  GRAD.:     0.647 HEAT: 31.67098
 CYCLE:   116 TIME:   0.008 TIME LEFT:  2.00D  GRAD.:     0.374 HEAT: 31.67069
 CYCLE:   117 TIME:   0.008 TIME LEFT:  2.00D  GRAD.:     0.293 HEAT: 31.67029
 CYCLE:   118 TIME:   0.008 TIME LEFT:  2.00D  GRAD.:     0.429 HEAT: 31.66956
 CYCLE:   119 TIME:   0.008 TIME LEFT:  2.00D  GRAD.:     0.604 HEAT: 31.66851
 CYCLE:   120 TIME:   0.008 TIME LEFT:  2.00D  GRAD.:     0.667 HEAT: 31.66778
 CYCLE:   121 TIME:   0.008 TIME LEFT:  2.00D  GRAD.:     0.635 HEAT: 31.66662
 CYCLE:   122 TIME:   0.008 TIME LEFT:  2.00D  GRAD.:     0.679 HEAT: 31.66563
 CYCLE:   123 TIME:   0.008 TIME LEFT:  2.00D  GRAD.:     1.091 HEAT: 31.66368
 CYCLE:   124 TIME:   0.008 TIME LEFT:  2.00D  GRAD.:     1.661 HEAT: 31.66373
 CYCLE:   125 TIME:   0.008 TIME LEFT:  2.00D  GRAD.:     0.703 HEAT: 31.66198
 CYCLE:   126 TIME:   0.008 TIME LEFT:  2.00D  GRAD.:     0.547 HEAT: 31.66149
 CYCLE:   127 TIME:   0.008 TIME LEFT:  2.00D  GRAD.:     0.687 HEAT: 31.66116
 CYCLE:   128 TIME:   0.008 TIME LEFT:  2.00D  GRAD.:     0.310 HEAT: 31.66096
 CYCLE:   129 TIME:   0.008 TIME LEFT:  2.00D  GRAD.:     0.245 HEAT: 31.66083
 CYCLE:   130 TIME:   0.008 TIME LEFT:  2.00D  GRAD.:     0.158 HEAT: 31.66073
 CYCLE:   131 TIME:   0.008 TIME LEFT:  2.00D  GRAD.:     0.125 HEAT: 31.66065
 CYCLE:   132 TIME:   0.007 TIME LEFT:  2.00D  GRAD.:     0.092 HEAT: 31.66062
 CYCLE:   133 TIME:   0.008 TIME LEFT:  2.00D  GRAD.:     0.095 HEAT: 31.66063
 CYCLE:   134 TIME:   0.008 TIME LEFT:  2.00D  GRAD.:     0.052 HEAT: 31.66060
 CYCLE:   135 TIME:   0.008 TIME LEFT:  2.00D  GRAD.:     0.061 HEAT: 31.66060
 CYCLE:   136 TIME:   0.008 TIME LEFT:  2.00D  GRAD.:     0.076 HEAT: 31.66059
 CYCLE:   137 TIME:   0.008 TIME LEFT:  2.00D  GRAD.:     0.053 HEAT: 31.66058
 CYCLE:   138 TIME:   0.008 TIME LEFT:  2.00D  GRAD.:     0.031 HEAT: 31.66058

     RMS GRADIENT =  0.03109  IS LESS THAN CUTOFF =  0.05000



 -------------------------------------------------------------------------------
pm3  precise nosym
 InChI=1S/C10H14/c1-2-3-4-7-10-8-5-6-9-10/h2-3,5-6,8-10H,4,7H2,1H3



     GEOMETRY OPTIMISED USING EIGENVECTOR FOLLOWING (EF).     
     SCF FIELD WAS ACHIEVED                                   


                              PM3 CALCULATION
                                                       MOPAC2012 (Version: 13.159M)
                                                       Mon Jun  2 11:13:01 2014
                                                       No. of days left =   6




          FINAL HEAT OF FORMATION =         31.66058 KCAL/MOL =     132.46785 KJ/MOL


          TOTAL ENERGY            =      -1399.68873 EV
          ELECTRONIC ENERGY       =      -7577.09031 EV  POINT GROUP:     C1  
          CORE-CORE REPULSION     =       6177.40158 EV
          COSMO AREA              =        196.89 SQUARE ANGSTROMS
          COSMO VOLUME            =        198.91 CUBIC ANGSTROMS

          GRADIENT NORM           =          0.03109
          IONIZATION POTENTIAL    =          9.206483 EV
          HOMO LUMO ENERGIES (EV) =         -9.206  0.340
          NO. OF FILLED LEVELS    =         27
          MOLECULAR WEIGHT        =        134.221

          MOLECULAR DIMENSIONS (Angstroms)

            Atom       Atom       Distance
            H    16    H    23     9.21753
            H    15    H    18     4.61220
            H    24    H    19     4.19463


          SCF CALCULATIONS        =        148
          COMPUTATION TIME        =          1.165 SECONDS




   ATOM   CHEMICAL          X               Y               Z
  NUMBER   SYMBOL      (ANGSTROMS)     (ANGSTROMS)     (ANGSTROMS)
 
     1       C         -1.20221817  *   0.29368479  *   0.06558509  *
     2       C         -0.64242494  *  -0.21479219  *  -1.25529337  *
     3       C          0.67039065  *  -0.96526031  *  -1.07788611  *
     4       C          3.75642566  *   0.52965763  *   0.69364116  *
     5       C         -2.33981394  *   1.26836992  *  -0.13046330  *
     6       C         -1.84569404  *  -0.78722015  *   0.90210514  *
     7       C          1.78255794  *  -0.06180186  *  -0.67601764  *
     8       C          2.63382569  *  -0.35371447  *   0.30882817  *
     9       C         -3.43663777  *   0.82426569  *   0.52059076  *
    10       C         -3.12876131  *  -0.45629276  *   1.16382427  *
    11       H         -0.39198498  *   0.78476661  *   0.65773929  *
    12       H         -0.49869047  *   0.64362465  *  -1.94205851  *
    13       H         -1.38421653  *  -0.87458772  *  -1.74599581  *
    14       H          0.53905577  *  -1.79048728  *  -0.34829181  *
    15       H          0.95126174  *  -1.44995214  *  -2.03476803  *
    16       H          4.71500284  *   0.00616400  *   0.57713762  *
    17       H          3.80517603  *   1.44783802  *   0.09311559  *
    18       H          3.66856114  *   0.82698873  *   1.74734249  *
    19       H         -2.23099602  *   2.17767136  *  -0.71758911  *
    20       H         -1.30499216  *  -1.67654673  *   1.21961273  *
    21       H          2.53466875  *  -1.28282764  *   0.88429692  *
    22       H          1.87751667  *   0.86969228  *  -1.24919718  *
    23       H         -4.41048297  *   1.30552754  *   0.58378255  *
    24       H         -3.85184615  *  -1.01865981  *   1.75109686  *

           Empirical Formula: C10 H14  =    24 atoms



      MOLECULAR POINT GROUP   :   C1  


                  EIGENVALUES  
 -40.87124 -36.79585 -32.64316 -27.69866 -27.18881 -24.46442 -21.21982 -19.76824
 -18.97014 -18.45708 -17.93585 -16.11442 -15.68880 -15.02336 -14.54685 -14.19829
 -13.90489 -13.62920 -13.26346 -12.93301 -12.52948 -12.38086 -12.32905 -11.72372
 -10.98403  -9.75691  -9.20648   0.33974   1.03624   2.04532   3.24873   3.33264
   3.40688   3.57201   3.75159   3.80280   3.82672   3.87670   4.07186   4.11836
   4.25877   4.31792   4.36006   4.46097   4.48023   4.66924   4.73253   4.85535
   4.92445   5.63327   5.81433   5.83736   5.91025   6.18188


              NET ATOMIC CHARGES AND DIPOLE CONTRIBUTIONS

  ATOM NO.   TYPE          CHARGE      No. of ELECS.   s-Pop       p-Pop       
    1          C          -0.041136        4.0411     1.16639     2.87475
    2          C          -0.068486        4.0685     1.15626     2.91222
    3          C          -0.067256        4.0673     1.14963     2.91763
    4          C          -0.074115        4.0741     1.12511     2.94901
    5          C          -0.158834        4.1588     1.20995     2.94888
    6          C          -0.155817        4.1558     1.20926     2.94656
    7          C          -0.157517        4.1575     1.19757     2.95995
    8          C          -0.147677        4.1477     1.19374     2.95394
    9          C          -0.119442        4.1194     1.19237     2.92708
   10          C          -0.121233        4.1212     1.19245     2.92878
   11          H           0.098797        0.9012     0.90120
   12          H           0.052743        0.9473     0.94726
   13          H           0.056609        0.9434     0.94339
   14          H           0.056458        0.9435     0.94354
   15          H           0.055999        0.9440     0.94400
   16          H           0.044203        0.9558     0.95580
   17          H           0.040959        0.9590     0.95904
   18          H           0.044234        0.9558     0.95577
   19          H           0.116179        0.8838     0.88382
   20          H           0.116985        0.8830     0.88302
   21          H           0.098821        0.9012     0.90118
   22          H           0.102906        0.8971     0.89709
   23          H           0.113313        0.8867     0.88669
   24          H           0.113308        0.8867     0.88669
 DIPOLE           X         Y         Z       TOTAL
 POINT-CHG.     0.537    -0.018    -0.185     0.568
 HYBRID         0.022     0.033     0.070     0.081
 SUM            0.558     0.015    -0.114     0.570


          ATOMIC ORBITAL ELECTRON POPULATIONS

    Atom      s        px        py        pz   
    1  C   1.16639   0.97227   0.94174   0.96074
    2  C   1.15626   0.96027   0.99988   0.95207
    3  C   1.14963   0.93585   0.96860   1.01317
    4  C   1.12511   0.96521   0.98033   1.00347
    5  C   1.20995   0.95707   0.98855   1.00326
    6  C   1.20926   0.96371   0.98221   1.00064
    7  C   1.19757   0.97462   0.99824   0.98709
    8  C   1.19374   0.97480   0.99539   0.98375
    9  C   1.19237   0.97569   0.96259   0.98880
   10  C   1.19245   0.96291   0.96522   1.00065
   11  H   0.90120
   12  H   0.94726
   13  H   0.94339
   14  H   0.94354
   15  H   0.94400
   16  H   0.95580
   17  H   0.95904
   18  H   0.95577
   19  H   0.88382
   20  H   0.88302
   21  H   0.90118
   22  H   0.89709
   23  H   0.88669
   24  H   0.88669
 *******************************************************************************
 ** Site#: 14399           For non-commercial use only        Version 13.159M **
 *******************************************************************************
 ** Cite this work as: MOPAC2012, James J. P. Stewart, Stewart Computational  **
 ** Chemistry, Version 13.159M web: HTTP://OpenMOPAC.net  Days remaining:   6 **
 *******************************************************************************
 **                                                                           **
 **                                MOPAC2012                                  **
 **                                                                           **
 *******************************************************************************

                            PM3 CALCULATION RESULTS


 *******************************************************************************
 *  CALCULATION DONE:                                Mon Jun  2 11:13:01 2014  *
 *  PM3      - The PM3 Hamiltonian to be used
 *  OLDGEO   - PREVIOUS GEOMETRY TO BE USED
 *  PRECISE  - CRITERIA TO BE INCREASED BY 100 TIMES
 *  NOSYM    - POINT-GROUP SYMMETRY SET TO C1
 *  T=       - A TIME OF 172800.0 SECONDS REQUESTED
 *  DUMP=N   - RESTART FILE WRITTEN EVERY  7200.000 SECONDS
 *  THERMO   - THERMODYNAMIC QUANTITIES TO BE CALCULATED
 *******************************************************************************
oldgeo thermo nosym precise  pm3

   ATOM   CHEMICAL          X               Y               Z
  NUMBER   SYMBOL      (ANGSTROMS)     (ANGSTROMS)     (ANGSTROMS)
 
     1       C         -1.20221817  *   0.29368479  *   0.06558509  *
     2       C         -0.64242494  *  -0.21479219  *  -1.25529337  *
     3       C          0.67039065  *  -0.96526031  *  -1.07788611  *
     4       C          3.75642566  *   0.52965763  *   0.69364116  *
     5       C         -2.33981394  *   1.26836992  *  -0.13046330  *
     6       C         -1.84569404  *  -0.78722015  *   0.90210514  *
     7       C          1.78255794  *  -0.06180186  *  -0.67601764  *
     8       C          2.63382569  *  -0.35371447  *   0.30882817  *
     9       C         -3.43663777  *   0.82426569  *   0.52059076  *
    10       C         -3.12876131  *  -0.45629276  *   1.16382427  *
    11       H         -0.39198498  *   0.78476661  *   0.65773929  *
    12       H         -0.49869047  *   0.64362465  *  -1.94205851  *
    13       H         -1.38421653  *  -0.87458772  *  -1.74599581  *
    14       H          0.53905577  *  -1.79048728  *  -0.34829181  *
    15       H          0.95126174  *  -1.44995214  *  -2.03476803  *
    16       H          4.71500284  *   0.00616400  *   0.57713762  *
    17       H          3.80517603  *   1.44783802  *   0.09311559  *
    18       H          3.66856114  *   0.82698873  *   1.74734249  *
    19       H         -2.23099602  *   2.17767136  *  -0.71758911  *
    20       H         -1.30499216  *  -1.67654673  *   1.21961273  *
    21       H          2.53466875  *  -1.28282764  *   0.88429692  *
    22       H          1.87751667  *   0.86969228  *  -1.24919718  *
    23       H         -4.41048297  *   1.30552754  *   0.58378255  *
    24       H         -3.85184615  *  -1.01865981  *   1.75109686  *
 


          CARTESIAN COORDINATES 

    NO.       ATOM         X         Y         Z

     1         C       -1.2022    0.2937    0.0656
     2         C       -0.6424   -0.2148   -1.2553
     3         C        0.6704   -0.9653   -1.0779
     4         C        3.7564    0.5297    0.6936
     5         C       -2.3398    1.2684   -0.1305
     6         C       -1.8457   -0.7872    0.9021
     7         C        1.7826   -0.0618   -0.6760
     8         C        2.6338   -0.3537    0.3088
     9         C       -3.4366    0.8243    0.5206
    10         C       -3.1288   -0.4563    1.1638
    11         H       -0.3920    0.7848    0.6577
    12         H       -0.4987    0.6436   -1.9421
    13         H       -1.3842   -0.8746   -1.7460
    14         H        0.5391   -1.7905   -0.3483
    15         H        0.9513   -1.4500   -2.0348
    16         H        4.7150    0.0062    0.5771
    17         H        3.8052    1.4478    0.0931
    18         H        3.6686    0.8270    1.7473
    19         H       -2.2310    2.1777   -0.7176
    20         H       -1.3050   -1.6765    1.2196
    21         H        2.5347   -1.2828    0.8843
    22         H        1.8775    0.8697   -1.2492
    23         H       -4.4105    1.3055    0.5838
    24         H       -3.8518   -1.0187    1.7511

  H: (PM3): J. J. P. STEWART, J. COMP. CHEM. 10, 209 (1989).
  C: (PM3): J. J. P. STEWART, J. COMP. CHEM. 10, 209 (1989).

           Empirical Formula: C10 H14  =    24 atoms



      MOLECULAR POINT GROUP   :   C1  


      RHF CALCULATION, NO. OF DOUBLY OCCUPIED LEVELS =   27



          HEAT OF FORMATION =      31.660576 KCALS/MOLE


          INTERNAL COORDINATE DERIVATIVES

   NUMBER  ATOM       BOND         ANGLE      DIHEDRAL

     1       C      0.000042    -0.004227     0.002785
     2       C      0.000247    -0.000257    -0.000174
     3       C     -0.001013     0.000933    -0.000227
     4       C      0.009482    -0.004753     0.001445
     5       C      0.005655     0.003708    -0.002671
     6       C      0.000928     0.003582    -0.003643
     7       C      0.002938    -0.013120     0.003472
     8       C     -0.006979     0.008147    -0.004519
     9       C     -0.006584     0.006303     0.010625
    10       C     -0.004439    -0.014359    -0.003900
    11       H     -0.000170     0.001257     0.002857
    12       H      0.001529     0.004400    -0.001667
    13       H     -0.000947     0.001161     0.001712
    14       H     -0.002035    -0.000157    -0.000998
    15       H      0.001473     0.005419    -0.005817
    16       H      0.002491     0.003253     0.002969
    17       H     -0.000022    -0.008221    -0.005148
    18       H     -0.004852     0.007339     0.001218
    19       H      0.001524     0.001938    -0.002235
    20       H     -0.001214    -0.002174     0.000186
    21       H     -0.002217     0.003102     0.008470
    22       H      0.004220    -0.003733    -0.008145
    23       H      0.001370     0.000384     0.000777
    24       H     -0.001426     0.000076     0.002629


          GRADIENT NORM =   0.03885


          TIME FOR SCF CALCULATION =    0.01

          TIME FOR DERIVATIVES     =    0.01

          MOLECULAR WEIGHT =  134.22



          ROTATIONAL CONSTANTS IN CM(-1)

          A =    0.09929496   B =    0.01963632   C =    0.01920523



           PRINCIPAL MOMENTS OF INERTIA IN UNITS OF 10**(-40)*GRAM-CM**2

          A =      281.9154   B =     1425.5614   C =     1457.5603


          ORIENTATION OF MOLECULE IN FORCE CALCULATION

    NO.       ATOM         X         Y         Z

     1          C      -0.4460   -0.8025    0.2096
     2          C       1.0761   -0.8025    0.2096
     3          C       1.6556    0.6054    0.2096
     4          C       0.7539    3.2806   -2.4223
     5          C      -1.0199   -2.1712   -0.0728
     6          C      -1.0475   -0.4733    1.5557
     7          C       1.4141    1.3110   -1.0782
     8          C       0.9700    2.5672   -1.1444
     9          C      -1.8399   -2.5376    0.9359
    10          C      -1.8571   -1.4798    1.9504
    11          H      -0.8259   -0.0777   -0.5511
    12          H       1.4381   -1.3616   -0.6766
    13          H       1.4495   -1.3580    1.0918
    14          H       1.2499    1.1818    1.0662
    15          H       2.7513    0.5541    0.3721
    16          H       1.3824    4.1801   -2.4716
    17          H       0.9862    2.6653   -3.3017
    18          H      -0.2922    3.6036   -2.5106
    19          H      -0.7741   -2.7296   -0.9734
    20          H      -0.8271    0.4542    2.0804
    21          H       0.7446    3.1354   -0.2330
    22          H       1.6353    0.7397   -1.9893
    23          H      -2.4137   -3.4581    1.0229
    24          H      -2.4448   -1.5384    2.8642


    FIRST DERIVATIVES WILL BE USED IN THE CALCULATION OF SECOND DERIVATIVES

          ESTIMATED TIME TO COMPLETE CALCULATION =        3.32 SECONDS

    FOR POINT-GROUP C1   THERE ARE   1 UNIQUE SYMMETRY FUNCTIONS.

 STEP:   1 TIME =     0.04 SECS, INTEGRAL =      0.04 TIME LEFT: 172799.95
 STEP:   2 TIME =     0.04 SECS, INTEGRAL =      0.07 TIME LEFT: 172799.92
 STEP:   3 TIME =     0.04 SECS, INTEGRAL =      0.11 TIME LEFT: 172799.88
 STEP:   4 TIME =     0.04 SECS, INTEGRAL =      0.14 TIME LEFT: 172799.85
 STEP:   5 TIME =     0.04 SECS, INTEGRAL =      0.18 TIME LEFT: 172799.81
 STEP:   6 TIME =     0.03 SECS, INTEGRAL =      0.21 TIME LEFT: 172799.78
 STEP:   7 TIME =     0.04 SECS, INTEGRAL =      0.25 TIME LEFT: 172799.74
 STEP:   8 TIME =     0.04 SECS, INTEGRAL =      0.28 TIME LEFT: 172799.70
 STEP:   9 TIME =     0.04 SECS, INTEGRAL =      0.32 TIME LEFT: 172799.67
 STEP:  10 TIME =     0.04 SECS, INTEGRAL =      0.35 TIME LEFT: 172799.63
 STEP:  11 TIME =     0.04 SECS, INTEGRAL =      0.39 TIME LEFT: 172799.60
 STEP:  12 TIME =     0.03 SECS, INTEGRAL =      0.42 TIME LEFT: 172799.56
 STEP:  13 TIME =     0.04 SECS, INTEGRAL =      0.46 TIME LEFT: 172799.53
 STEP:  14 TIME =     0.04 SECS, INTEGRAL =      0.50 TIME LEFT: 172799.49
 STEP:  15 TIME =     0.04 SECS, INTEGRAL =      0.53 TIME LEFT: 172799.46
 STEP:  16 TIME =     0.04 SECS, INTEGRAL =      0.57 TIME LEFT: 172799.42
 STEP:  17 TIME =     0.04 SECS, INTEGRAL =      0.60 TIME LEFT: 172799.38
 STEP:  18 TIME =     0.04 SECS, INTEGRAL =      0.65 TIME LEFT: 172799.34
 STEP:  19 TIME =     0.04 SECS, INTEGRAL =      0.68 TIME LEFT: 172799.31
 STEP:  20 TIME =     0.04 SECS, INTEGRAL =      0.72 TIME LEFT: 172799.27
 STEP:  21 TIME =     0.04 SECS, INTEGRAL =      0.75 TIME LEFT: 172799.24
 STEP:  22 TIME =     0.04 SECS, INTEGRAL =      0.79 TIME LEFT: 172799.20
 STEP:  23 TIME =     0.04 SECS, INTEGRAL =      0.82 TIME LEFT: 172799.16
 STEP:  24 TIME =     0.03 SECS, INTEGRAL =      0.86 TIME LEFT: 172799.13
 STEP:  25 TIME =     0.04 SECS, INTEGRAL =      0.90 TIME LEFT: 172799.09
 STEP:  26 TIME =     0.04 SECS, INTEGRAL =      0.93 TIME LEFT: 172799.06
 STEP:  27 TIME =     0.04 SECS, INTEGRAL =      0.97 TIME LEFT: 172799.02
 STEP:  28 TIME =     0.04 SECS, INTEGRAL =      1.00 TIME LEFT: 172798.98
 STEP:  29 TIME =     0.04 SECS, INTEGRAL =      1.04 TIME LEFT: 172798.95
 STEP:  30 TIME =     0.04 SECS, INTEGRAL =      1.08 TIME LEFT: 172798.91
 STEP:  31 TIME =     0.04 SECS, INTEGRAL =      1.11 TIME LEFT: 172798.88
 STEP:  32 TIME =     0.04 SECS, INTEGRAL =      1.15 TIME LEFT: 172798.84
 STEP:  33 TIME =     0.04 SECS, INTEGRAL =      1.18 TIME LEFT: 172798.81
 STEP:  34 TIME =     0.04 SECS, INTEGRAL =      1.22 TIME LEFT: 172798.77
 STEP:  35 TIME =     0.04 SECS, INTEGRAL =      1.26 TIME LEFT: 172798.73
 STEP:  36 TIME =     0.03 SECS, INTEGRAL =      1.29 TIME LEFT: 172798.70
 STEP:  37 TIME =     0.04 SECS, INTEGRAL =      1.33 TIME LEFT: 172798.66
 STEP:  38 TIME =     0.04 SECS, INTEGRAL =      1.36 TIME LEFT: 172798.63
 STEP:  39 TIME =     0.04 SECS, INTEGRAL =      1.40 TIME LEFT: 172798.59
 STEP:  40 TIME =     0.04 SECS, INTEGRAL =      1.44 TIME LEFT: 172798.55
 STEP:  41 TIME =     0.04 SECS, INTEGRAL =      1.47 TIME LEFT: 172798.51
 STEP:  42 TIME =     0.03 SECS, INTEGRAL =      1.51 TIME LEFT: 172798.48
 STEP:  43 TIME =     0.03 SECS, INTEGRAL =      1.54 TIME LEFT: 172798.45
 STEP:  44 TIME =     0.04 SECS, INTEGRAL =      1.58 TIME LEFT: 172798.41
 STEP:  45 TIME =     0.04 SECS, INTEGRAL =      1.62 TIME LEFT: 172798.37
 STEP:  46 TIME =     0.04 SECS, INTEGRAL =      1.65 TIME LEFT: 172798.34
 STEP:  47 TIME =     0.03 SECS, INTEGRAL =      1.69 TIME LEFT: 172798.30
 STEP:  48 TIME =     0.04 SECS, INTEGRAL =      1.72 TIME LEFT: 172798.27
 STEP:  49 TIME =     0.04 SECS, INTEGRAL =      1.76 TIME LEFT: 172798.23
 STEP:  50 TIME =     0.04 SECS, INTEGRAL =      1.79 TIME LEFT: 172798.20
 STEP:  51 TIME =     0.03 SECS, INTEGRAL =      1.83 TIME LEFT: 172798.16
 STEP:  52 TIME =     0.03 SECS, INTEGRAL =      1.86 TIME LEFT: 172798.13
 STEP:  53 TIME =     0.04 SECS, INTEGRAL =      1.90 TIME LEFT: 172798.09
 STEP:  54 TIME =     0.04 SECS, INTEGRAL =      1.93 TIME LEFT: 172798.06
 STEP:  55 TIME =     0.04 SECS, INTEGRAL =      1.97 TIME LEFT: 172798.02
 STEP:  56 TIME =     0.04 SECS, INTEGRAL =      2.01 TIME LEFT: 172797.98
 STEP:  57 TIME =     0.04 SECS, INTEGRAL =      2.04 TIME LEFT: 172797.95
 STEP:  58 TIME =     0.04 SECS, INTEGRAL =      2.08 TIME LEFT: 172797.91
 STEP:  59 TIME =     0.04 SECS, INTEGRAL =      2.11 TIME LEFT: 172797.87
 STEP:  60 TIME =     0.04 SECS, INTEGRAL =      2.16 TIME LEFT: 172797.83
 STEP:  61 TIME =     0.04 SECS, INTEGRAL =      2.19 TIME LEFT: 172797.80
 STEP:  62 TIME =     0.04 SECS, INTEGRAL =      2.23 TIME LEFT: 172797.76
 STEP:  63 TIME =     0.03 SECS, INTEGRAL =      2.26 TIME LEFT: 172797.72
 STEP:  64 TIME =     0.04 SECS, INTEGRAL =      2.30 TIME LEFT: 172797.69
 STEP:  65 TIME =     0.04 SECS, INTEGRAL =      2.34 TIME LEFT: 172797.65
 STEP:  66 TIME =     0.03 SECS, INTEGRAL =      2.37 TIME LEFT: 172797.62
 STEP:  67 TIME =     0.04 SECS, INTEGRAL =      2.41 TIME LEFT: 172797.58
 STEP:  68 TIME =     0.03 SECS, INTEGRAL =      2.44 TIME LEFT: 172797.55
 STEP:  69 TIME =     0.04 SECS, INTEGRAL =      2.48 TIME LEFT: 172797.51
 STEP:  70 TIME =     0.04 SECS, INTEGRAL =      2.52 TIME LEFT: 172797.47
 STEP:  71 TIME =     0.04 SECS, INTEGRAL =      2.55 TIME LEFT: 172797.44
 STEP:  72 TIME =     0.04 SECS, INTEGRAL =      2.59 TIME LEFT: 172797.40

(To convert to Hartree/Bohr^2, multiply by (10^(-21) x N x a0^2)/(4.184 x 627.51) = 0.0642)


           FORCE MATRIX IN MILLIDYNES/ANGSTROM


                  C  1       C  2       C  3       C  4       C  5       C  6
 ------------------------------------------------------------------------------
     C    1  14.859690
     C    2   4.026726  14.265091
     C    3   0.622012   4.082208  14.627736
     C    4   0.001579   0.019098   0.142815  14.718344
     C    5   4.129827   0.609760   0.047174   0.001332  17.912360
     C    6   4.131722   0.596910   0.038488   0.001428   1.096743  17.892863
     C    7   0.051953   0.689171   4.949281   0.848425   0.005399   0.003681
     C    8   0.007298   0.041843   0.822931   5.269343   0.001606   0.002946
     C    9   1.208688   0.049815   0.009360   0.001998   9.783653   1.575236
     C   10   1.210034   0.052843   0.007781   0.001807   1.577334   9.778443
     H   11   4.198329   0.445547   0.037004   0.000822   0.388291   0.387749
     H   12   0.439822   4.437230   0.445962   0.000775   0.040921   0.044567
     H   13   0.442550   4.488654   0.429964   0.003022   0.011486   0.023744
     H   14   0.023142   0.441410   4.413467   0.003325   0.000999   0.011440
     H   15   0.050322   0.433857   4.426127   0.019840   0.008350   0.003486
     H   16   0.000344   0.001927   0.019435   4.704400   0.000438   0.000441
     H   17   0.000221   0.000860   0.002175   4.723689   0.000288   0.000361
     H   18   0.000512   0.003413   0.019258   4.707748   0.000388   0.000700
     H   19   0.403565   0.014262   0.001734   0.000319   5.074738   0.042133
     H   20   0.403956   0.008958   0.012720   0.000738   0.042745   5.061945
     H   21   0.001269   0.007836   0.083205   0.423833   0.001194   0.001724
     H   22   0.003732   0.027346   0.430203   0.082782   0.001939   0.001647
     H   23   0.112443   0.015872   0.002695   0.000320   0.447110   0.049485
     H   24   0.112085   0.015970   0.000626   0.000417   0.049355   0.446640


                  C  7       C  8       C  9       C 10       H 11       H 12
 ------------------------------------------------------------------------------
     C    7  18.162608
     C    8  10.670742  18.180786
     C    9   0.003636   0.000936  18.324386
     C   10   0.002638   0.002632   5.156161  18.318834
     H   11   0.016114   0.007845   0.050133   0.050201   4.678349
     H   12   0.033189   0.002249   0.005902   0.007193   0.017865   5.051104
     H   13   0.049852   0.006900   0.004888   0.006053   0.042502   0.561214
     H   14   0.458218   0.049867   0.000896   0.001695   0.003493   0.044738
     H   15   0.405842   0.030417   0.002139   0.001529   0.002829   0.024590
     H   16   0.034655   0.439145   0.000559   0.000535   0.000346   0.000219
     H   17   0.041725   0.479137   0.000720   0.000407   0.000287   0.000290
     H   18   0.036275   0.438548   0.000418   0.000599   0.000448   0.000280
     H   19   0.000991   0.000701   0.443335   0.099756   0.011245   0.013475
     H   20   0.001710   0.001206   0.100013   0.442841   0.011192   0.001808
     H   21   0.470152   4.773131   0.000911   0.001170   0.001213   0.000708
     H   22   4.758332   0.468109   0.001882   0.001184   0.002754   0.025986
     H   23   0.000819   0.000513   5.071356   0.419047   0.014231   0.000615
     H   24   0.000905   0.000373   0.419332   5.070862   0.014146   0.002553


                  H 13       H 14       H 15       H 16       H 17       H 18
 ------------------------------------------------------------------------------
     H   13   5.088026
     H   14   0.024819   5.027559
     H   15   0.037595   0.559152   5.015427
     H   16   0.000289   0.000795   0.003339   5.424446
     H   17   0.000140   0.000527   0.000443   0.564879   5.450196
     H   18   0.000692   0.000321   0.002308   0.574464   0.565106   5.426431
     H   19   0.001789   0.000743   0.000484   0.000136   0.000145   0.000116
     H   20   0.002695   0.020922   0.000932   0.000155   0.000259   0.000333
     H   21   0.001445   0.030029   0.009874   0.023642   0.040982   0.024299
     H   22   0.002084   0.037716   0.017015   0.009345   0.029707   0.009381
     H   23   0.000398   0.000186   0.000522   0.000136   0.000099   0.000094
     H   24   0.000891   0.000439   0.000169   0.000196   0.000135   0.000166


                  H 19       H 20       H 21       H 22       H 23       H 24
 ------------------------------------------------------------------------------
     H   19   5.475609
     H   20   0.010250   5.463412
     H   21   0.000246   0.000784   5.151323
     H   22   0.000562   0.000753   0.105145   5.141397
     H   23   0.041388   0.005303   0.000237   0.000323   5.462280
     H   24   0.005396   0.040879   0.000264   0.000283   0.009563   5.462312


          HEAT OF FORMATION =      31.660576 KCALS/MOLE

          ZERO POINT ENERGY     131.469 KCAL/MOL


           NORMAL COORDINATE ANALYSIS (Total motion = 1 Angstrom)


   Root No.       1         2         3         4         5         6         7         8

                 1 A       2 A       3 A       4 A       5 A       6 A       7 A       8 A   

                  47.5      60.5      94.7     146.6     167.1     195.5     222.3     297.5
  
           1   -0.0191    0.0012   -0.0112   -0.0083   -0.0255    0.0089   -0.0102    0.0023
           2   -0.0045    0.0247    0.0005    0.0062    0.0254   -0.0166   -0.0027   -0.0120
           3    0.0114    0.0241   -0.0099   -0.0110   -0.0206   -0.0108    0.0152   -0.0117
           4   -0.0191    0.0014   -0.0112   -0.0080   -0.0240    0.0082   -0.0095    0.0030
           5    0.0112    0.0120   -0.0002    0.0025    0.0045   -0.0049    0.0141    0.0010
           6   -0.0058    0.0158   -0.0239   -0.0103    0.0052   -0.0242   -0.0241    0.0265
           7   -0.0322    0.0096   -0.0085   -0.0046    0.0034   -0.0192    0.0176   -0.0263
           8    0.0165    0.0088   -0.0012    0.0011   -0.0078    0.0089    0.0048    0.0141
           9   -0.0051    0.0095    0.0058    0.0126    0.0097    0.0273   -0.0093    0.0096
          10    0.0531   -0.0094    0.0168    0.0034   -0.0138   -0.0104   -0.0313   -0.0164
          11    0.0256   -0.0273    0.0018   -0.0103   -0.0220   -0.0271    0.0014    0.0212
          12   -0.0248   -0.0214    0.0001   -0.0015    0.0033   -0.0153    0.0006    0.0106
          13   -0.0078   -0.0134   -0.0107   -0.0052   -0.0088   -0.0108    0.0080   -0.0161
          14   -0.0082    0.0414   -0.0023    0.0038    0.0172   -0.0095   -0.0134   -0.0052
          15    0.0053   -0.0263    0.0019   -0.0058   -0.0170   -0.0032    0.0195   -0.0079
          16   -0.0071    0.0125    0.0029   -0.0010   -0.0231    0.0278   -0.0212    0.0121
          17   -0.0239   -0.0224    0.0035    0.0058    0.0190   -0.0071   -0.0106   -0.0023
          18    0.0216    0.0407   -0.0041   -0.0075   -0.0178   -0.0050    0.0129   -0.0101
          19   -0.0170    0.0161    0.0295    0.0177    0.0024   -0.0065    0.0615    0.0239
          20    0.0115   -0.0020    0.0101    0.0052   -0.0079    0.0166    0.0188   -0.0152
          21   -0.0106    0.0022    0.0051    0.0111    0.0106    0.0301   -0.0106   -0.0192
          22    0.0292   -0.0108   -0.0270   -0.0195    0.0320    0.0186    0.0374    0.0199
          23    0.0274   -0.0124   -0.0101   -0.0085    0.0021    0.0239    0.0107   -0.0161
          24   -0.0197   -0.0128    0.0009    0.0035    0.0089    0.0095   -0.0060   -0.0187
          25    0.0074   -0.0112    0.0050    0.0110    0.0360   -0.0188   -0.0088   -0.0117
          26   -0.0263    0.0097   -0.0028   -0.0026   -0.0119    0.0106   -0.0134    0.0048
          27    0.0110   -0.0361    0.0145    0.0050    0.0083   -0.0020    0.0060    0.0000
          28    0.0077    0.0052    0.0133    0.0136    0.0260    0.0096   -0.0328    0.0183
          29   -0.0360   -0.0302    0.0010   -0.0014   -0.0105    0.0097   -0.0076   -0.0002
          30    0.0211    0.0058    0.0106    0.0039    0.0070   -0.0007   -0.0010    0.0058
          31   -0.0355    0.0027   -0.0189   -0.0088   -0.0127    0.0004   -0.0330    0.0143
          32   -0.0017    0.0573   -0.0019    0.0058    0.0263   -0.0175   -0.0092   -0.0154
          33    0.0225    0.0543   -0.0080   -0.0106   -0.0243   -0.0081    0.0204   -0.0205
          34   -0.0229   -0.0069   -0.0193   -0.0086   -0.0178    0.0081   -0.0359    0.0393
          35    0.0181    0.0085    0.0198    0.0152   -0.0048    0.0339    0.0308   -0.0182
          36   -0.0118    0.0147   -0.0398   -0.0186    0.0133   -0.0486   -0.0460    0.0546
          37   -0.0046    0.0023   -0.0053   -0.0107   -0.0490    0.0226    0.0116   -0.0150
          38    0.0108    0.0108   -0.0216   -0.0126    0.0002   -0.0346   -0.0069    0.0334
          39   -0.0121    0.0146   -0.0398   -0.0187    0.0134   -0.0493   -0.0461    0.0549
          40   -0.0482    0.0085   -0.0303   -0.0195    0.0184   -0.0558    0.0096   -0.0867
          41    0.0168    0.0167   -0.0082   -0.0033   -0.0017   -0.0140    0.0082    0.0280
          42   -0.0128    0.0036    0.0002    0.0085    0.0125    0.0250   -0.0155   -0.0270
          43   -0.0338    0.0086   -0.0130   -0.0078    0.0032   -0.0229    0.0125   -0.0347
          44    0.0262    0.0050   -0.0047   -0.0015   -0.0292    0.0306   -0.0215    0.0448
          45    0.0097    0.0141    0.0354    0.0328    0.0035    0.0571    0.0173    0.0742
          46    0.0752   -0.0233   -0.0405    0.1410   -0.0607   -0.0345   -0.0487   -0.0264
          47    0.0100   -0.0176    0.0453   -0.1096    0.0093   -0.0131    0.0110    0.0289
          48   -0.0268   -0.0231    0.0647   -0.0644   -0.0169   -0.0603   -0.0404    0.0227
          49    0.0422    0.0095    0.1225   -0.1482    0.0053   -0.0073   -0.0708   -0.0390
          50    0.0151   -0.0314    0.0361   -0.0694   -0.0214   -0.0556   -0.0018    0.0519
          51   -0.0203   -0.0136    0.0041   -0.0002    0.0078    0.0051   -0.0074   -0.0159
          52    0.0613   -0.0137    0.0013    0.0485   -0.0317   -0.0202   -0.0416   -0.0222
          53    0.0507   -0.0449   -0.0672    0.1508   -0.0769   -0.0582   -0.0156    0.0160
          54   -0.0316   -0.0350   -0.0692    0.0559    0.0135   -0.0138    0.0558    0.0556
          55   -0.0121   -0.0236   -0.0210   -0.0132   -0.0228   -0.0229    0.0311   -0.0372
          56    0.0028    0.0743   -0.0041    0.0060    0.0297   -0.0169   -0.0200   -0.0054
          57   -0.0028   -0.0495    0.0002   -0.0093   -0.0286   -0.0018    0.0299   -0.0134
          58   -0.0113    0.0252    0.0033   -0.0060   -0.0496    0.0503   -0.0274    0.0226
          59   -0.0263   -0.0448    0.0071    0.0097    0.0326   -0.0130   -0.0120   -0.0020
          60    0.0277    0.0751   -0.0105   -0.0123   -0.0307   -0.0037    0.0178   -0.0147
          61    0.0534   -0.0363   -0.1089   -0.0617    0.0789    0.0490    0.0363    0.0199
          62    0.0433   -0.0107   -0.0366   -0.0175    0.0221    0.0570    0.0033   -0.0344
          63   -0.0237   -0.0201   -0.0028   -0.0014    0.0078   -0.0043   -0.0014   -0.0058
          64   -0.0419    0.0423    0.1088    0.0628   -0.0379   -0.0306    0.0854    0.0462
          65   -0.0041   -0.0028    0.0361    0.0173   -0.0228    0.0023    0.0289   -0.0243
          66   -0.0068    0.0090    0.0080    0.0143    0.0100    0.0323   -0.0109   -0.0064
          67    0.0179   -0.0192    0.0107    0.0199    0.0700   -0.0406   -0.0030   -0.0286
          68   -0.0330    0.0115   -0.0053   -0.0073   -0.0315    0.0242   -0.0175    0.0155
          69    0.0088   -0.0690    0.0258    0.0130    0.0253   -0.0007    0.0013    0.0021
          70    0.0182    0.0096    0.0251    0.0247    0.0507    0.0151   -0.0528    0.0397
          71   -0.0507   -0.0606    0.0020   -0.0054   -0.0291    0.0212   -0.0032   -0.0002
          72    0.0269    0.0067    0.0183    0.0108    0.0216    0.0035   -0.0135    0.0194


   Root No.       9        10        11        12        13        14        15        16

                 9 A      10 A      11 A      12 A      13 A      14 A      15 A      16 A   

                 351.0     474.7     506.5     518.8     525.9     731.5     796.9     813.4
  
           1   -0.0051   -0.0192    0.0110   -0.0147   -0.0141    0.0002    0.0031   -0.0017
           2   -0.0182    0.0074   -0.0060    0.0014    0.0112   -0.0275   -0.0086    0.0013
           3   -0.0142   -0.0158    0.0063   -0.0164   -0.0023    0.0303    0.0173    0.0111
           4   -0.0017   -0.0232    0.0189   -0.0174   -0.0246   -0.0244    0.0012   -0.0021
           5    0.0073    0.0459    0.0064    0.0153   -0.0281    0.0103   -0.0011    0.0007
           6    0.0284   -0.0096   -0.0110    0.0040    0.0089    0.0113    0.0170    0.0030
           7    0.0313    0.0103    0.0303    0.0156   -0.0096   -0.0154   -0.0126    0.0020
           8    0.0007    0.0249    0.0083    0.0049   -0.0350    0.0011    0.0053    0.0035
           9   -0.0110    0.0031    0.0323    0.0236    0.0127    0.0010    0.0011    0.0006
          10    0.0005    0.0078   -0.0054   -0.0039   -0.0094    0.0014    0.0044   -0.0007
          11    0.0004   -0.0170    0.0225    0.0147    0.0253   -0.0012   -0.0005   -0.0004
          12   -0.0136    0.0176   -0.0117   -0.0076   -0.0211    0.0016    0.0021    0.0005
          13   -0.0254    0.0244   -0.0116   -0.0139    0.0355    0.0090   -0.0113   -0.0346
          14   -0.0176   -0.0204    0.0008   -0.0049   -0.0064   -0.0223   -0.0039    0.0055
          15   -0.0024    0.0131    0.0027   -0.0094    0.0083   -0.0180   -0.0077   -0.0121
          16   -0.0010    0.0091   -0.0256    0.0358    0.0064    0.0120   -0.0079    0.0317
          17   -0.0095   -0.0033    0.0048   -0.0185    0.0087    0.0203    0.0186   -0.0003
          18   -0.0154   -0.0029   -0.0124    0.0076    0.0074    0.0136   -0.0041    0.0134
          19    0.0114   -0.0069   -0.0079   -0.0031    0.0024   -0.0009   -0.0074    0.0020
          20    0.0300   -0.0191   -0.0139   -0.0089    0.0072   -0.0016   -0.0029    0.0008
          21    0.0091   -0.0100    0.0191    0.0155    0.0236   -0.0012   -0.0053   -0.0012
          22   -0.0074   -0.0016   -0.0029   -0.0009    0.0026    0.0052    0.0089   -0.0015
          23    0.0245   -0.0197   -0.0152   -0.0104    0.0078   -0.0006    0.0022   -0.0003
          24    0.0047    0.0104   -0.0293   -0.0196   -0.0231   -0.0006    0.0004    0.0003
          25   -0.0226   -0.0230   -0.0125    0.0174   -0.0053    0.0180   -0.0090   -0.0296
          26   -0.0061    0.0109   -0.0029   -0.0132    0.0170   -0.0011   -0.0043   -0.0079
          27    0.0054   -0.0140    0.0018    0.0138   -0.0189   -0.0076   -0.0078   -0.0132
          28    0.0118    0.0155    0.0064   -0.0215    0.0147    0.0208   -0.0008    0.0317
          29   -0.0098   -0.0054   -0.0131    0.0184    0.0004    0.0096    0.0087   -0.0079
          30    0.0093    0.0039    0.0112   -0.0195    0.0009   -0.0087   -0.0177   -0.0100
          31    0.0051   -0.0589    0.0205   -0.0325   -0.0169   -0.0374    0.0353   -0.0059
          32   -0.0287   -0.0230   -0.0113    0.0137    0.0019   -0.0421   -0.0081    0.0450
          33   -0.0283   -0.0239   -0.0047    0.0054   -0.0083    0.0336    0.0010    0.0547
          34    0.0280   -0.0181   -0.0079   -0.0017   -0.0253   -0.0531   -0.0393   -0.0047
          35   -0.0351    0.0566    0.0605    0.0207   -0.0419    0.0376    0.0514    0.0005
          36    0.0683   -0.0155   -0.0578    0.0070    0.0171   -0.0193   -0.0350    0.0024
          37   -0.0294   -0.0299    0.0448   -0.0408   -0.0512    0.0141    0.0604    0.0030
          38    0.0519    0.0324   -0.0504    0.0030   -0.0346   -0.0094   -0.0418    0.0042
          39    0.0693   -0.0151   -0.0595    0.0068    0.0173   -0.0174   -0.0356    0.0031
          40    0.0961    0.0426    0.0506    0.0614    0.0126    0.0531    0.0446    0.0023
          41    0.0118    0.0482    0.0000    0.0157   -0.0453    0.0235    0.0220    0.0066
          42    0.0113    0.0024    0.0456    0.0366    0.0292    0.0165    0.0151   -0.0013
          43    0.0385    0.0124    0.0338    0.0191   -0.0090   -0.0089   -0.0031    0.0016
          44   -0.0421   -0.0016    0.0035   -0.0329   -0.0670   -0.0535   -0.0103    0.0009
          45   -0.0669   -0.0169    0.0074   -0.0088   -0.0003   -0.0525   -0.0608    0.0019
          46    0.0028    0.0141   -0.0019   -0.0023   -0.0160   -0.0057   -0.0135    0.0030
          47   -0.0022   -0.0207    0.0232    0.0157    0.0306    0.0029    0.0095   -0.0026
          48   -0.0312    0.0307    0.0291    0.0190   -0.0151   -0.0079   -0.0266    0.0050
          49    0.0052    0.0155   -0.0077   -0.0067   -0.0205   -0.0065   -0.0127    0.0028
          50   -0.0199   -0.0142    0.0599    0.0402    0.0427   -0.0020   -0.0081   -0.0005
          51    0.0013    0.0174   -0.0370   -0.0252   -0.0352    0.0002    0.0028    0.0014
          52    0.0019    0.0104   -0.0033   -0.0029   -0.0119   -0.0024   -0.0049    0.0011
          53    0.0003   -0.0123    0.0346    0.0222    0.0250   -0.0091   -0.0211    0.0033
          54   -0.0297    0.0087    0.0035    0.0048   -0.0007    0.0151    0.0294   -0.0055
          55   -0.0500    0.0741   -0.0370   -0.0237    0.1055   -0.0848    0.0387    0.1832
          56   -0.0212   -0.0512    0.0108   -0.0079   -0.0333    0.0480   -0.0176   -0.0980
          57   -0.0068    0.0458   -0.0103   -0.0101    0.0438   -0.0873    0.0143    0.1116
          58    0.0091    0.0407   -0.0737    0.1110    0.0250   -0.0525    0.0748   -0.1733
          59   -0.0062   -0.0175    0.0304   -0.0549   -0.0025    0.0697   -0.0283    0.1114
          60   -0.0253    0.0090   -0.0376    0.0408    0.0194   -0.0463    0.0448   -0.0974
          61   -0.0280    0.0211    0.0177    0.0096   -0.0148   -0.0138   -0.0378    0.0083
          62    0.0304   -0.0239   -0.0025   -0.0021    0.0172   -0.0098   -0.0191    0.0023
          63   -0.0048    0.0187   -0.0309   -0.0214   -0.0328    0.0005    0.0021    0.0011
          64    0.0224   -0.0356   -0.0353   -0.0171    0.0255    0.0308    0.0524   -0.0070
          65    0.0442   -0.0342   -0.0488   -0.0336    0.0075    0.0059    0.0158   -0.0027
          66    0.0022   -0.0071    0.0339    0.0274    0.0284    0.0017   -0.0027   -0.0012
          67   -0.0435   -0.0663   -0.0366    0.0766   -0.0327   -0.0764    0.0751    0.0837
          68    0.0070    0.0359    0.0104   -0.0456    0.0323    0.0552   -0.0502   -0.0697
          69    0.0080   -0.0346   -0.0148    0.0620   -0.0396   -0.0351    0.0623    0.0838
          70    0.0410    0.0590    0.0290   -0.0732    0.0467   -0.0636    0.1054   -0.0646
          71   -0.0096   -0.0255   -0.0230    0.0587   -0.0288    0.0398   -0.0540    0.0599
          72    0.0281    0.0304    0.0253   -0.0503    0.0194   -0.0614    0.0462   -0.0681


   Root No.      17        18        19        20        21        22        23        24

                17 A      18 A      19 A      20 A      21 A      22 A      23 A      24 A   

                 818.0     827.6     890.1     906.9     937.7     959.5     974.5     979.8
  
           1    0.0061    0.0064    0.0053    0.0073   -0.0147   -0.0038   -0.0027    0.0002
           2   -0.0094    0.0326    0.0058   -0.0042    0.0067    0.0007    0.0014    0.0028
           3   -0.0188   -0.0083   -0.0068    0.0048   -0.0066   -0.0012    0.0033    0.0048
           4    0.0040    0.0052   -0.0083    0.0045    0.0077    0.0071   -0.0068    0.0005
           5    0.0038    0.0016   -0.0060    0.0052   -0.0039   -0.0054    0.0041   -0.0023
           6   -0.0044   -0.0020    0.0286   -0.0235    0.0074   -0.0014    0.0139   -0.0023
           7   -0.0188   -0.0145   -0.0141   -0.0204    0.0275   -0.0102    0.0137   -0.0032
           8    0.0053   -0.0001   -0.0005    0.0037   -0.0009    0.0070   -0.0059    0.0042
           9    0.0031    0.0014    0.0026   -0.0024    0.0017   -0.0048   -0.0119    0.0025
          10    0.0088    0.0090   -0.0110   -0.0060    0.0049   -0.0001    0.0134   -0.0022
          11   -0.0006    0.0009   -0.0005   -0.0114    0.0097   -0.0169   -0.0230    0.0033
          12    0.0028    0.0015    0.0002    0.0019   -0.0013    0.0009   -0.0041    0.0013
          13    0.0064   -0.0016    0.0027    0.0004   -0.0070   -0.0183    0.0069   -0.0134
          14    0.0101    0.0184    0.0131    0.0035   -0.0152    0.0001   -0.0018   -0.0045
          15   -0.0160    0.0438    0.0077    0.0052   -0.0140   -0.0152    0.0018   -0.0158
          16   -0.0050    0.0144    0.0041    0.0000   -0.0074   -0.0185    0.0076    0.0121
          17   -0.0309   -0.0025   -0.0185    0.0057    0.0105    0.0165   -0.0128   -0.0151
          18   -0.0026   -0.0155   -0.0188    0.0049    0.0102    0.0009   -0.0100   -0.0063
          19   -0.0163   -0.0181    0.0097   -0.0026   -0.0302    0.0098   -0.0107    0.0026
          20   -0.0074   -0.0074    0.0035    0.0006   -0.0127    0.0096    0.0069   -0.0006
          21    0.0030    0.0033   -0.0137    0.0136   -0.0062    0.0068    0.0081   -0.0009
          22    0.0160    0.0152   -0.0112   -0.0075   -0.0077    0.0040   -0.0045    0.0010
          23   -0.0001    0.0014    0.0003   -0.0092   -0.0001    0.0001    0.0019   -0.0005
          24   -0.0030   -0.0022    0.0033   -0.0065    0.0032   -0.0043   -0.0016   -0.0003
          25    0.0127   -0.0171    0.0014   -0.0052    0.0086    0.0152   -0.0027    0.0295
          26    0.0350   -0.0399    0.0002   -0.0019   -0.0003   -0.0069    0.0020   -0.0182
          27    0.0022    0.0116    0.0053   -0.0023    0.0026    0.0079   -0.0017    0.0205
          28   -0.0174    0.0147   -0.0004   -0.0031    0.0072    0.0142   -0.0055   -0.0286
          29   -0.0038   -0.0127   -0.0054    0.0022   -0.0016   -0.0069    0.0033    0.0190
          30    0.0391   -0.0245    0.0087   -0.0070    0.0024    0.0062    0.0009   -0.0185
          31    0.0116    0.0218    0.0616   -0.0168   -0.0153    0.0392   -0.0089   -0.0086
          32    0.0083    0.0274    0.0224   -0.0133    0.0122    0.0092    0.0219    0.1546
          33   -0.0052   -0.0216   -0.0206    0.0079    0.0007   -0.0141    0.0251    0.1534
          34    0.0351    0.0101   -0.0522    0.0507   -0.0047    0.0057   -0.0616    0.0031
          35    0.0188   -0.0007    0.0684   -0.0444    0.0118   -0.0069    0.0106   -0.0134
          36   -0.0019    0.0014   -0.0395    0.0285   -0.0069   -0.0012   -0.0127    0.0068
          37    0.0024   -0.0064    0.0309   -0.0058   -0.0083    0.0370    0.0165   -0.0020
          38    0.0076    0.0002   -0.0847    0.0803   -0.0373    0.0120   -0.0151    0.0109
          39   -0.0014    0.0020   -0.0396    0.0301   -0.0083   -0.0036   -0.0092    0.0075
          40    0.0628    0.0306    0.0300    0.0341   -0.0376    0.0143   -0.0454    0.0111
          41    0.0059   -0.0087    0.0392   -0.0215   -0.0157   -0.0003    0.0031    0.0029
          42    0.0389    0.0274   -0.0048    0.0389   -0.0177    0.0108   -0.0444    0.0100
          43   -0.0038   -0.0039   -0.0135   -0.0094    0.0249   -0.0026    0.0063   -0.0008
          44   -0.0158    0.0027   -0.0510   -0.0173    0.0850    0.0172    0.0301    0.0021
          45   -0.0926   -0.0641   -0.0169   -0.0733    0.0397   -0.0507    0.0407   -0.0133
          46   -0.0259   -0.0274    0.0261    0.0241   -0.0157    0.0138   -0.0052    0.0013
          47    0.0197    0.0222   -0.0233   -0.0264    0.0199   -0.0213   -0.0049    0.0000
          48   -0.0402   -0.0465    0.0353    0.0850   -0.0604    0.0850    0.0847   -0.0117
          49   -0.0273   -0.0277    0.0290    0.0116   -0.0041   -0.0066   -0.0365    0.0063
          50   -0.0027   -0.0037   -0.0095    0.0329   -0.0241    0.0484    0.0886   -0.0149
          51   -0.0049   -0.0047    0.0160   -0.0227    0.0187   -0.0438   -0.0908    0.0156
          52   -0.0092   -0.0096    0.0080    0.0070   -0.0036    0.0034   -0.0004    0.0001
          53   -0.0378   -0.0380    0.0365    0.0250   -0.0154    0.0041   -0.0290    0.0043
          54    0.0653    0.0636   -0.0725   -0.0087    0.0002    0.0399    0.1249   -0.0194
          55    0.0258   -0.0258    0.0152   -0.0109    0.0102    0.0699   -0.0130    0.0514
          56   -0.0412    0.0622    0.0059    0.0197   -0.0519   -0.0653    0.0205   -0.0524
          57    0.0207    0.0109    0.0159   -0.0079    0.0133    0.0492   -0.0174    0.0318
          58   -0.0337   -0.0188    0.0192   -0.0175    0.0135    0.0674   -0.0044   -0.0383
          59    0.0068   -0.0099   -0.0149    0.0089   -0.0134   -0.0439    0.0123    0.0262
          60   -0.0585    0.0115   -0.0322    0.0066    0.0440    0.0719   -0.0493   -0.0578
          61   -0.0707   -0.0758    0.1148    0.1447    0.0951   -0.0262   -0.0073   -0.0005
          62   -0.0335   -0.0316    0.0335    0.0539    0.0258    0.0160    0.0680   -0.0125
          63   -0.0036   -0.0040    0.0135   -0.0079    0.0122   -0.0212   -0.0422    0.0066
          64    0.0858    0.0792    0.0305    0.1159    0.1761   -0.0471    0.0097   -0.0036
          65    0.0139    0.0166    0.0208    0.0199    0.0655   -0.0077    0.0644   -0.0164
          66    0.0140    0.0116   -0.0195    0.0301   -0.0051    0.0040   -0.0222    0.0074
          67    0.0400   -0.0841   -0.0127    0.0251   -0.0509   -0.0819    0.0167   -0.1433
          68    0.0173   -0.0045    0.0058   -0.0195    0.0369    0.0501   -0.0096    0.0828
          69   -0.0121   -0.0494   -0.0327    0.0114    0.0091   -0.0252    0.0017   -0.0449
          70   -0.0530   -0.0231   -0.0265    0.0354   -0.0462   -0.0782    0.0309    0.1410
          71    0.0097    0.0573    0.0467   -0.0272   -0.0049    0.0149    0.0234   -0.0323
          72    0.0178   -0.0449   -0.0051    0.0158   -0.0317   -0.0514    0.0252    0.0868


   Root No.      25        26        27        28        29        30        31        32

                25 A      26 A      27 A      28 A      29 A      30 A      31 A      32 A   

                1000.3    1020.9    1028.4    1050.2    1051.7    1085.7    1091.8    1102.9
  
           1    0.0034   -0.0060   -0.0118   -0.0214   -0.0022   -0.0005    0.0042   -0.0038
           2   -0.0212    0.0090   -0.0071    0.0030   -0.0079    0.0040   -0.0007   -0.0059
           3    0.0239    0.0043   -0.0005   -0.0049    0.0015    0.0014    0.0012    0.0038
           4   -0.0068    0.0022    0.0026    0.0065    0.0118    0.0051    0.0022   -0.0196
           5    0.0110   -0.0014   -0.0048   -0.0249   -0.0168    0.0052    0.0031   -0.0197
           6   -0.0099    0.0019    0.0067    0.0091   -0.0050    0.0032    0.0035   -0.0216
           7    0.0065    0.0008    0.0101   -0.0041   -0.0014   -0.0033   -0.0016    0.0122
           8   -0.0059    0.0013    0.0009    0.0175    0.0072   -0.0069   -0.0033    0.0276
           9   -0.0021   -0.0023   -0.0003    0.0011    0.0111   -0.0008    0.0004    0.0074
          10    0.0054   -0.0155   -0.0209    0.0145    0.0011    0.0008    0.0005   -0.0003
          11    0.0100   -0.0015   -0.0078    0.0029   -0.0066    0.0004   -0.0002   -0.0038
          12   -0.0002    0.0013   -0.0008    0.0050   -0.0016   -0.0018   -0.0013    0.0059
          13   -0.0089    0.0153   -0.0082    0.0042    0.0029    0.0017   -0.0026    0.0044
          14    0.0211   -0.0187    0.0140   -0.0016   -0.0007   -0.0037   -0.0052   -0.0170
          15   -0.0032    0.0000   -0.0002    0.0024    0.0038   -0.0164   -0.0088   -0.0052
          16   -0.0114   -0.0109    0.0102    0.0051   -0.0118   -0.0027   -0.0032   -0.0004
          17    0.0006   -0.0037   -0.0007   -0.0004    0.0112   -0.0174    0.0052    0.0042
          18   -0.0263   -0.0189    0.0088    0.0045   -0.0028   -0.0054    0.0042    0.0162
          19   -0.0040   -0.0030   -0.0125    0.0253   -0.0024    0.0030    0.0018   -0.0084
          20   -0.0051   -0.0024   -0.0042    0.0121    0.0019    0.0006    0.0007    0.0012
          21    0.0069    0.0050   -0.0009   -0.0010   -0.0165   -0.0009   -0.0021   -0.0062
          22   -0.0075    0.0192    0.0292   -0.0235    0.0002   -0.0018   -0.0011    0.0030
          23   -0.0049    0.0041    0.0105   -0.0088    0.0057   -0.0012   -0.0003    0.0052
          24    0.0002   -0.0017    0.0009   -0.0056    0.0035    0.0010    0.0009   -0.0042
          25    0.0026   -0.0136    0.0074   -0.0021   -0.0076    0.0024    0.0034   -0.0045
          26   -0.0099    0.0084   -0.0091   -0.0039   -0.0044    0.0018   -0.0018   -0.0120
          27   -0.0011   -0.0081    0.0018   -0.0040   -0.0038    0.0025   -0.0053   -0.0077
          28    0.0061    0.0124   -0.0103   -0.0034    0.0064   -0.0030    0.0027   -0.0044
          29   -0.0005   -0.0059    0.0074    0.0042   -0.0012    0.0000    0.0055    0.0075
          30    0.0137    0.0086   -0.0001    0.0042    0.0057    0.0006    0.0015    0.0134
          31   -0.0463   -0.0245   -0.0638   -0.0650   -0.0916   -0.0294   -0.0468    0.2169
          32   -0.0311    0.1040   -0.1000   -0.0234    0.0425   -0.0615   -0.0198    0.0498
          33    0.0370    0.1039   -0.0624   -0.0068    0.0959   -0.0463    0.0100   -0.0537
          34   -0.0288   -0.0467    0.0015   -0.0165    0.1608    0.0331    0.0156   -0.0235
          35   -0.0346   -0.0313    0.0115   -0.0237    0.0586    0.0307    0.0194   -0.0745
          36    0.0108    0.0018   -0.0040   -0.0008    0.0085   -0.0021   -0.0010    0.0117
          37    0.0247    0.0287   -0.0082    0.0079   -0.1237   -0.0013   -0.0128   -0.0777
          38    0.0703    0.0170   -0.0313   -0.0539   -0.0966   -0.0083   -0.0140   -0.0098
          39    0.0154    0.0018   -0.0060   -0.0109    0.0032   -0.0024   -0.0006    0.0081
          40   -0.0186   -0.0122   -0.0125    0.0145    0.0416   -0.0068   -0.0040    0.0294
          41   -0.0115   -0.0401   -0.0174   -0.0323    0.0682   -0.0285   -0.0200    0.0692
          42   -0.0087    0.0197    0.0015    0.0418   -0.0109    0.0115    0.0100   -0.0122
          43   -0.0008    0.0099    0.0163    0.0190   -0.0039   -0.0018   -0.0001    0.0092
          44   -0.0217    0.0766    0.0807    0.1518   -0.0431   -0.0079   -0.0019    0.0188
          45    0.0442   -0.0432   -0.0201   -0.1189    0.0163   -0.0115   -0.0104    0.0217
          46   -0.0161    0.0237    0.0350   -0.0190    0.0035   -0.0018   -0.0008    0.0062
          47    0.0212   -0.0255   -0.0404    0.0219   -0.0067    0.0021    0.0007   -0.0081
          48   -0.0575    0.0427    0.0826   -0.0463    0.0240   -0.0043   -0.0009    0.0179
          49   -0.0049    0.0227    0.0256   -0.0126   -0.0047   -0.0019   -0.0015    0.0044
          50   -0.0214   -0.0079    0.0109   -0.0163    0.0188    0.0034    0.0035   -0.0091
          51    0.0180    0.0154   -0.0015    0.0114   -0.0204   -0.0047   -0.0045    0.0116
          52   -0.0033    0.0040    0.0062   -0.0034    0.0010    0.0000    0.0001   -0.0001
          53   -0.0147    0.0391    0.0539   -0.0395   -0.0022   -0.0008   -0.0006   -0.0041
          54    0.0049   -0.0675   -0.0782    0.0561    0.0159    0.0012    0.0016    0.0086
          55    0.1065   -0.0422    0.0547    0.0147    0.0226    0.1258   -0.0793    0.0466
          56    0.0576    0.0089    0.0372    0.0412    0.0444    0.1335   -0.1184    0.0628
          57    0.0050   -0.0327    0.0020   -0.0219   -0.0189   -0.0693    0.0402   -0.0452
          58    0.1181    0.0367    0.0033    0.0146    0.0504   -0.1061   -0.1060    0.0010
          59   -0.0147   -0.0240    0.0317    0.0244    0.0017   -0.0595   -0.0500    0.0169
          60   -0.0528   -0.0025   -0.0450   -0.0424   -0.0109    0.1090    0.1446   -0.0049
          61    0.0252   -0.0383   -0.0679    0.0635   -0.0101    0.0067    0.0042   -0.0144
          62   -0.0008   -0.0290   -0.0235    0.0029    0.0139   -0.0041   -0.0034    0.0067
          63    0.0056    0.0045   -0.0021    0.0083   -0.0039    0.0047    0.0039   -0.0089
          64    0.0184    0.0209    0.0394   -0.0469   -0.0073   -0.0114   -0.0071    0.0288
          65   -0.0102   -0.0194    0.0173   -0.0509    0.0414    0.0094    0.0083   -0.0234
          66    0.0155    0.0211   -0.0018    0.0206   -0.0420   -0.0100   -0.0091    0.0186
          67    0.0075    0.0285   -0.0042    0.0125    0.0120   -0.0768    0.0756    0.0083
          68   -0.0187   -0.0114   -0.0082   -0.0154   -0.0167    0.0678   -0.0629   -0.0227
          69   -0.0697    0.0621   -0.0686   -0.0298   -0.0016    0.1788   -0.1838   -0.0299
          70   -0.0068   -0.0226    0.0242    0.0056   -0.0132    0.0510    0.0862    0.0228
          71    0.0892    0.0699   -0.0124    0.0125    0.0156    0.1264    0.2230    0.0793
          72    0.0104   -0.0094    0.0208    0.0106   -0.0057    0.0436    0.0682    0.0364


   Root No.      33        34        35        36        37        38        39        40

                33 A      34 A      35 A      36 A      37 A      38 A      39 A      40 A   

                1130.8    1141.5    1165.1    1196.3    1209.2    1210.1    1246.0    1266.5
  
           1   -0.0229   -0.0223    0.0110    0.0027   -0.0012   -0.0048    0.0050   -0.0323
           2    0.0090    0.0138   -0.0078   -0.0081    0.0003   -0.0282    0.0042   -0.0280
           3   -0.0141   -0.0146    0.0040    0.0010    0.0034   -0.0207   -0.0021    0.0084
           4    0.0146    0.0218   -0.0106   -0.0122   -0.0032   -0.0102    0.0077   -0.0343
           5    0.0185   -0.0213    0.0194   -0.0045   -0.0032   -0.0028    0.0087   -0.0231
           6    0.0062    0.0019    0.0054   -0.0082   -0.0097    0.0062    0.0011   -0.0029
           7   -0.0073   -0.0031    0.0000   -0.0043   -0.0045    0.0067   -0.0037    0.0148
           8   -0.0230    0.0070   -0.0210   -0.0076   -0.0002    0.0030    0.0028   -0.0003
           9   -0.0043   -0.0061   -0.0268   -0.0055    0.0318    0.0021    0.0030    0.0060
          10   -0.0003   -0.0019   -0.0026   -0.0027   -0.0028    0.0003    0.0005    0.0009
          11    0.0028    0.0031    0.0066    0.0091    0.0071   -0.0009   -0.0003   -0.0023
          12   -0.0085    0.0136    0.0244   -0.0253    0.0161    0.0031   -0.0127   -0.0014
          13    0.0011    0.0032   -0.0020    0.0006    0.0012   -0.0080   -0.0030    0.0136
          14   -0.0213   -0.0073    0.0018    0.0043    0.0020   -0.0086   -0.0066    0.0311
          15   -0.0044   -0.0014    0.0004    0.0034    0.0002    0.0119   -0.0027    0.0147
          16    0.0008    0.0011   -0.0012    0.0005   -0.0001    0.0121    0.0005   -0.0007
          17    0.0098    0.0011    0.0015   -0.0006   -0.0015    0.0052    0.0015   -0.0062
          18    0.0220    0.0079   -0.0005   -0.0037   -0.0011   -0.0189    0.0002   -0.0016
          19    0.0042   -0.0037    0.0056    0.0109    0.0094   -0.0020    0.0081   -0.0019
          20   -0.0031   -0.0044   -0.0021   -0.0192   -0.0185    0.0018   -0.0191    0.0015
          21    0.0046    0.0122    0.0240    0.0335   -0.0129   -0.0042   -0.0318   -0.0178
          22   -0.0003    0.0020    0.0011    0.0039    0.0053    0.0001   -0.0031   -0.0026
          23   -0.0049   -0.0003   -0.0077   -0.0172   -0.0170    0.0018    0.0040    0.0090
          24    0.0066   -0.0080   -0.0211    0.0357   -0.0034   -0.0048    0.0519    0.0053
          25   -0.0077   -0.0018   -0.0005    0.0008    0.0011   -0.0049   -0.0018    0.0080
          26   -0.0172   -0.0031   -0.0007    0.0044    0.0012    0.0143   -0.0028    0.0151
          27   -0.0076   -0.0031    0.0012    0.0026   -0.0007    0.0191    0.0006   -0.0007
          28   -0.0057   -0.0023    0.0009    0.0021    0.0001    0.0082   -0.0011    0.0065
          29    0.0094    0.0021    0.0000   -0.0008   -0.0015    0.0162    0.0034   -0.0143
          30    0.0154    0.0034   -0.0003   -0.0034   -0.0017    0.0035    0.0050   -0.0241
          31    0.0728   -0.0842    0.0494    0.0222    0.0079    0.0036   -0.0076    0.0541
          32    0.0566   -0.0080    0.0153    0.0092   -0.0050    0.0658   -0.0001    0.0136
          33   -0.0162   -0.0033    0.0064    0.0070   -0.0065    0.0639    0.0003    0.0041
          34    0.0962   -0.0008    0.0683    0.0141   -0.0308   -0.0140   -0.0270    0.1443
          35    0.0928   -0.0394    0.1037    0.0124   -0.0426    0.0110   -0.0191    0.0763
          36   -0.0078    0.0019   -0.0161   -0.0079    0.0063   -0.0040    0.0035    0.0071
          37    0.0924    0.1490   -0.0890   -0.0072    0.0237    0.0497   -0.0209    0.1193
          38    0.0511    0.0345   -0.0402    0.0225    0.0527    0.0249   -0.0205    0.0723
          39   -0.0068   -0.0164   -0.0010    0.0040    0.0141   -0.0020   -0.0043   -0.0075
          40   -0.0223    0.0331   -0.0604    0.0019    0.0385   -0.0025    0.0043    0.0264
          41   -0.0684    0.1582   -0.0053    0.1621   -0.0182   -0.0227   -0.0649   -0.0214
          42    0.0194   -0.0917   -0.0692   -0.1166    0.0663    0.0150    0.0508    0.0273
          43   -0.0063   -0.0113    0.0069    0.0109    0.0065    0.0058   -0.0037    0.0163
          44   -0.0222   -0.0812    0.0610    0.1050    0.0490    0.0048   -0.0200    0.0555
          45   -0.0038    0.0334   -0.0623   -0.0815   -0.0223    0.0103   -0.0017    0.0342
          46   -0.0061    0.0033    0.0065   -0.0312   -0.0023    0.0042   -0.0372    0.0009
          47    0.0072   -0.0015   -0.0024    0.0317    0.0050   -0.0041    0.0310   -0.0017
          48   -0.0158   -0.0013   -0.0067   -0.0652   -0.0388    0.0074   -0.0466    0.0109
          49   -0.0057    0.0105    0.0198   -0.0232    0.0076    0.0032   -0.0275   -0.0016
          50    0.0167   -0.0322   -0.0642    0.0732   -0.0254   -0.0098    0.0850    0.0054
          51   -0.0206    0.0423    0.0809   -0.0790    0.0389    0.0104   -0.0812   -0.0065
          52    0.0009   -0.0016   -0.0036    0.0077    0.0003   -0.0011    0.0121   -0.0001
          53    0.0077   -0.0013   -0.0070    0.0454    0.0059   -0.0059    0.0476   -0.0025
          54   -0.0128   -0.0044   -0.0055   -0.0649   -0.0390    0.0075   -0.0449    0.0118
          55    0.0251    0.0016    0.0033    0.0023   -0.0071    0.0851    0.0131   -0.0496
          56    0.0442    0.0148   -0.0005    0.0064   -0.0081    0.1175    0.0098   -0.0288
          57   -0.0402   -0.0162    0.0035    0.0029    0.0044   -0.0414   -0.0092    0.0379
          58    0.0394   -0.0144    0.0039   -0.0210    0.0033   -0.1074    0.0008   -0.0059
          59    0.0453    0.0084   -0.0019   -0.0124   -0.0001   -0.0534    0.0012   -0.0062
          60   -0.0529    0.0020    0.0036    0.0249   -0.0053    0.1318    0.0015   -0.0034
          61    0.0122   -0.0319   -0.0342    0.0130   -0.0472   -0.0022   -0.0598   -0.0116
          62   -0.0244    0.0829    0.1241   -0.0254    0.1536    0.0007    0.1779    0.0243
          63    0.0212   -0.0670   -0.1116    0.0441   -0.1244   -0.0050   -0.0673   -0.0056
          64   -0.0246    0.0250    0.0071   -0.0223   -0.0660    0.0009    0.0504    0.0210
          65    0.0392   -0.0452   -0.0564    0.0523    0.1968    0.0044   -0.1580   -0.0557
          66   -0.0290    0.0446    0.0562   -0.0175   -0.1666   -0.0052    0.0622    0.0223
          67    0.0074   -0.0012    0.0016    0.0042   -0.0022    0.0523    0.0033   -0.0087
          68   -0.0317   -0.0041   -0.0024    0.0022    0.0042   -0.0328   -0.0077    0.0324
          69   -0.0453   -0.0060   -0.0023   -0.0032    0.0075   -0.1153   -0.0124    0.0423
          70   -0.0019    0.0051   -0.0007    0.0000    0.0029   -0.0461   -0.0071    0.0291
          71    0.0245    0.0250   -0.0059   -0.0072    0.0055   -0.1229   -0.0121    0.0444
          72    0.0202    0.0100   -0.0017   -0.0056    0.0003   -0.0403    0.0007   -0.0088


   Root No.      41        42        43        44        45        46        47        48

                41 A      42 A      43 A      44 A      45 A      46 A      47 A      48 A   

                1338.4    1353.7    1386.9    1394.2    1396.8    1399.2    1404.4    1422.8
  
           1   -0.0219   -0.0345    0.0283   -0.0241   -0.0008   -0.0030    0.0004    0.0476
           2    0.0672   -0.0093    0.0137   -0.0097   -0.0001   -0.0031    0.0092    0.0239
           3    0.0827    0.0140   -0.0037    0.0015    0.0001   -0.0028    0.0055   -0.0183
           4   -0.0016    0.0135   -0.0291    0.0364    0.0017    0.0075    0.0053   -0.0317
           5   -0.0067    0.0005   -0.0152    0.0033   -0.0010    0.0050   -0.0432   -0.0137
           6   -0.0147    0.0040    0.0047   -0.0020    0.0000    0.0044    0.0017    0.0027
           7   -0.0039    0.0061   -0.0011   -0.0107   -0.0006   -0.0179    0.0086    0.0088
           8   -0.0131    0.0464    0.0105   -0.0173   -0.0002    0.0009    0.0251    0.0062
           9    0.0067   -0.0267   -0.0224    0.0000   -0.0007   -0.0408   -0.0046    0.0069
          10   -0.0002    0.0020    0.0084    0.0055   -0.0393   -0.0042   -0.0001    0.0020
          11    0.0008   -0.0065   -0.0259   -0.0145   -0.0135    0.0129    0.0019   -0.0064
          12   -0.0025    0.0124    0.0159   -0.0014    0.0001    0.0113    0.0136    0.0156
          13   -0.0163    0.0019    0.0006   -0.0027   -0.0001   -0.0015    0.0021   -0.0180
          14   -0.0470    0.0035   -0.0013   -0.0030   -0.0002   -0.0017   -0.0001   -0.0315
          15   -0.0176    0.0047   -0.0049    0.0041    0.0001    0.0012   -0.0020   -0.0029
          16    0.0206    0.0027    0.0020   -0.0036   -0.0001   -0.0021    0.0038   -0.0181
          17   -0.0271   -0.0061    0.0026   -0.0022   -0.0001    0.0001   -0.0011    0.0029
          18   -0.0544   -0.0058   -0.0043    0.0072    0.0003    0.0043   -0.0071    0.0285
          19    0.0005   -0.0023   -0.0031    0.0005   -0.0003    0.0010   -0.0021   -0.0027
          20    0.0020   -0.0048    0.0059    0.0039    0.0002   -0.0011    0.0008    0.0049
          21   -0.0072    0.0252    0.0089   -0.0035    0.0002    0.0174    0.0036   -0.0034
          22   -0.0023    0.0076    0.0022   -0.0019   -0.0007    0.0036    0.0020   -0.0002
          23    0.0055   -0.0189   -0.0047    0.0045   -0.0003   -0.0112   -0.0043    0.0020
          24   -0.0003   -0.0015   -0.0122   -0.0053   -0.0004    0.0008   -0.0014   -0.0068
          25    0.0024    0.0041   -0.0031    0.0028    0.0001    0.0005   -0.0003   -0.0022
          26    0.0234    0.0160   -0.0194    0.0230    0.0009    0.0076   -0.0088    0.0371
          27    0.0187    0.0074   -0.0125    0.0165    0.0006    0.0063   -0.0079    0.0390
          28    0.0032    0.0044   -0.0039    0.0036    0.0001    0.0009   -0.0013   -0.0012
          29    0.0090   -0.0076    0.0141   -0.0178   -0.0007   -0.0067    0.0087   -0.0405
          30    0.0015   -0.0151    0.0201   -0.0231   -0.0008   -0.0079    0.0103   -0.0349
          31    0.0353    0.0388   -0.0369    0.0282    0.0004    0.0058   -0.0169   -0.0467
          32   -0.0716    0.0050   -0.0122    0.0099    0.0002    0.0049   -0.0123   -0.0059
          33   -0.0774   -0.0075    0.0027   -0.0042   -0.0002    0.0011   -0.0062   -0.0001
          34    0.1336    0.0323    0.0423   -0.0832   -0.0054   -0.0101   -0.0589    0.0268
          35    0.0170   -0.0458    0.0273    0.0466    0.0066   -0.0024    0.1652    0.0181
[...]
 RED. MASS   0.4194        C  4 --  C  8           +5.0% ( 19.4%)     0.1%
 EFF. MASS   1.5623

 VIBRATION   46   46A       ATOM PAIR        ENERGY CONTRIBUTION    RADIAL
 FREQ.      1399.17        C  3 --  H 14          +23.8% ( 52.7%)     5.3%
 T-DIPOLE    0.0924        C  3 --  H 15          +22.8% ( 51.6%)     5.2%
 TRAVEL      0.1191        C  3 --  C  7          +12.3% ( 38.0%)    78.9%
 RED. MASS   0.4321        C  2 --  C  3           +9.0% ( 32.3%)     6.7%
 EFF. MASS   3.3974

 VIBRATION   47   47A       ATOM PAIR        ENERGY CONTRIBUTION    RADIAL
 FREQ.      1404.44        C  2 --  H 12          +25.8% ( 56.4%)     4.0%
 T-DIPOLE    0.0675        C  2 --  H 13          +23.4% ( 53.6%)     5.2%
 TRAVEL      0.1161        C  2 --  C  3          +12.9% ( 39.9%)    88.0%
 RED. MASS   0.4719        C  1 --  C  2           +7.7% ( 30.7%)     0.9%
 EFF. MASS   3.5643

 VIBRATION   48   48A       ATOM PAIR        ENERGY CONTRIBUTION    RADIAL
 FREQ.      1422.78        C  9 --  C 10          +14.0% ( 59.7%)   100.0%
 T-DIPOLE    0.0973        C  1 --  C  5           +8.8% ( 47.1%)    68.6%
 TRAVEL      0.0707        C  1 --  C  2           +8.6% ( 46.7%)    77.2%
 RED. MASS   1.3450        C  1 --  C  6           +8.1% ( 45.5%)    57.7%
 EFF. MASS   9.4696

 VIBRATION   49   49A       ATOM PAIR        ENERGY CONTRIBUTION    RADIAL
 FREQ.      1434.15        C  4 --  C  8          +16.6% ( 57.6%)    99.8%
 T-DIPOLE    0.0426        C  4 --  H 17          +15.3% ( 55.4%)     5.1%
 TRAVEL      0.0801        C  4 --  H 18          +12.4% ( 49.9%)     3.2%
 RED. MASS   1.2336        C  4 --  H 16          +12.3% ( 49.6%)     3.2%
 EFF. MASS   7.3231

 VIBRATION   50   50A       ATOM PAIR        ENERGY CONTRIBUTION    RADIAL
 FREQ.      1731.07        C  6 --  C 10          +18.4% ( 73.0%)    99.9%
 T-DIPOLE    0.4447        C  5 --  C  9          +18.0% ( 72.4%)    99.9%
 TRAVEL      0.0569        C  5 --  C 10          +10.7% ( 55.7%)    25.8%
 RED. MASS   2.7219        C  6 --  C  9          +10.7% ( 55.7%)    26.2%
 EFF. MASS  12.0250

 VIBRATION   51   51A       ATOM PAIR        ENERGY CONTRIBUTION    RADIAL
 FREQ.      1788.88        C  5 --  C  9          +18.1% ( 70.4%)    99.8%
 T-DIPOLE    0.3047        C  6 --  C 10          +17.7% ( 69.8%)    99.8%
 TRAVEL      0.0565        C  9 --  C 10          +12.1% ( 57.8%)     0.0%
 RED. MASS   2.6863        C  5 --  C 10          +10.9% ( 54.7%)    67.5%
 EFF. MASS  11.7990        C  6 --  C  9          +10.9% ( 54.7%)    64.6%

 VIBRATION   52   52A       ATOM PAIR        ENERGY CONTRIBUTION    RADIAL
 FREQ.      1888.57        C  7 --  C  8          +43.8% ( 97.5%)    96.4%
 T-DIPOLE    0.2201        C  4 --  C  8          +14.4% ( 55.8%)    56.5%
 TRAVEL      0.0550        C  3 --  C  7          +14.1% ( 55.4%)    54.6%
 RED. MASS   5.3716        C  8 --  H 21          +13.3% ( 53.8%)     3.4%
 EFF. MASS  11.7886        C  7 --  H 22          +13.2% ( 53.5%)     3.6%

 VIBRATION   53   53A       ATOM PAIR        ENERGY CONTRIBUTION    RADIAL
 FREQ.      2881.16        C  1 --  H 11          +96.7% ( 99.9%)   100.0%
 T-DIPOLE    0.2707        C  1 --  C  2           +1.0% ( 10.3%)     9.3%
 TRAVEL      0.1277        C  1 --  C  5           +1.0% ( 10.2%)    10.7%
 RED. MASS   0.9245        C  1 --  C  6           +1.0% ( 10.2%)    10.6%
 EFF. MASS   1.4362

 VIBRATION   54   54A       ATOM PAIR        ENERGY CONTRIBUTION    RADIAL
 FREQ.      2941.67        C  3 --  H 14          +48.4% ( 72.3%)    96.7%
 T-DIPOLE    0.0342        C  3 --  H 15          +45.4% ( 70.0%)    96.3%
 TRAVEL      0.1217        C  2 --  H 12           +2.8% ( 17.4%)    98.3%
 RED. MASS   0.4799        C  2 --  C  3           +1.2% ( 11.4%)     0.1%
 EFF. MASS   1.5481

 VIBRATION   55   55A       ATOM PAIR        ENERGY CONTRIBUTION    RADIAL
 FREQ.      2956.32        C  2 --  H 12          +53.6% ( 76.0%)    97.3%
 T-DIPOLE    0.0378        C  2 --  H 13          +40.1% ( 65.7%)    95.6%
 TRAVEL      0.1216        C  3 --  H 15           +2.9% ( 17.6%)    98.6%
 RED. MASS   0.4870        C  2 --  C  3           +1.1% ( 11.1%)     0.3%
 EFF. MASS   1.5424

 VIBRATION   56   56A       ATOM PAIR        ENERGY CONTRIBUTION    RADIAL
 FREQ.      3018.98        C  3 --  H 15          +47.8% ( 68.2%)    97.7%
 T-DIPOLE    0.0509        C  3 --  H 14          +47.2% ( 67.7%)    97.6%
 TRAVEL      0.1322        C  2 --  H 12           +2.2% ( 14.5%)    99.1%
 RED. MASS   0.4494        C  2 --  H 13           +0.8% (  8.6%)    93.2%
 EFF. MASS   1.2773

 VIBRATION   57   57A       ATOM PAIR        ENERGY CONTRIBUTION    RADIAL
 FREQ.      3032.95        C  2 --  H 13          +50.1% ( 70.0%)    98.5%
 T-DIPOLE    0.1309        C  2 --  H 12          +33.8% ( 57.5%)    96.2%
 TRAVEL      0.1306        C  7 --  H 22          +12.8% ( 35.4%)   100.0%
 RED. MASS   0.3806        C  3 --  H 15           +1.5% ( 12.2%)    99.6%
 EFF. MASS   1.3025

 VIBRATION   58   58A       ATOM PAIR        ENERGY CONTRIBUTION    RADIAL
 FREQ.      3036.01        C  7 --  H 22          +80.8% ( 90.6%)   100.0%
 T-DIPOLE    0.2665        C  2 --  H 13           +6.3% ( 25.4%)    98.5%
 TRAVEL      0.1238        C  8 --  H 21           +4.9% ( 22.3%)    99.8%
 RED. MASS   0.6371        C  2 --  H 12           +4.4% ( 21.1%)    96.5%
 EFF. MASS   1.4492

 VIBRATION   59   59A       ATOM PAIR        ENERGY CONTRIBUTION    RADIAL
 FREQ.      3038.54        C  8 --  H 21          +89.5% ( 96.2%)   100.0%
 T-DIPOLE    0.1783        C  7 --  H 22           +4.2% ( 20.8%)    99.5%
 TRAVEL      0.1198        C  7 --  C  8           +1.7% ( 13.4%)    38.9%
 RED. MASS   0.7990        C  4 --  H 17           +1.5% ( 12.5%)    98.1%
 EFF. MASS   1.5451

 VIBRATION   60   60A       ATOM PAIR        ENERGY CONTRIBUTION    RADIAL
 FREQ.      3069.90        C  4 --  H 16          +51.2% ( 73.8%)    97.3%
 T-DIPOLE    0.0250        C  4 --  H 18          +46.9% ( 70.6%)    96.7%
 TRAVEL      0.1210        C  4 --  H 17           +1.0% ( 10.3%)     1.9%
 RED. MASS   0.5096        C  4 --  C  8           +1.0% ( 10.2%)     0.0%
 EFF. MASS   1.5013

 VIBRATION   61   61A       ATOM PAIR        ENERGY CONTRIBUTION    RADIAL
 FREQ.      3075.55        C  4 --  H 17          +62.5% ( 81.5%)    98.9%
 T-DIPOLE    0.0561        C  4 --  H 18          +19.1% ( 45.1%)    86.7%
 TRAVEL      0.1206        C  4 --  H 16          +15.2% ( 40.2%)    82.7%
 RED. MASS   0.4783        C  8 --  H 21           +2.0% ( 14.7%)   100.0%
 EFF. MASS   1.5084

 VIBRATION   62   62A       ATOM PAIR        ENERGY CONTRIBUTION    RADIAL
 FREQ.      3130.77        C 10 --  H 24          +43.6% ( 67.6%)   100.0%
 T-DIPOLE    0.2472        C  6 --  H 20          +38.6% ( 63.6%)   100.0%
 TRAVEL      0.1207        C  9 --  H 23           +9.7% ( 32.0%)   100.0%
 RED. MASS   0.3548        C  5 --  H 19           +3.9% ( 20.1%)   100.0%
 EFF. MASS   1.4777

 VIBRATION   63   63A       ATOM PAIR        ENERGY CONTRIBUTION    RADIAL
 FREQ.      3133.10        C  9 --  H 23          +48.6% ( 71.4%)   100.0%
 T-DIPOLE    0.4517        C  5 --  H 19          +32.9% ( 58.7%)   100.0%
 TRAVEL      0.1208        C  6 --  H 20          +10.8% ( 33.6%)   100.0%
 RED. MASS   0.3614        C 10 --  H 24           +3.6% ( 19.5%)    99.9%
 EFF. MASS   1.4742

 VIBRATION   64   64A       ATOM PAIR        ENERGY CONTRIBUTION    RADIAL
 FREQ.      3144.36        C  6 --  H 20          +29.1% ( 55.4%)    99.9%
 T-DIPOLE    0.5312        C  5 --  H 19          +28.4% ( 54.8%)   100.0%
 TRAVEL      0.1158        C 10 --  H 24          +26.3% ( 52.7%)    99.9%
 RED. MASS   0.2576        C  9 --  H 23          +10.5% ( 33.3%)    99.8%
 EFF. MASS   1.6005

 VIBRATION   65   65A       ATOM PAIR        ENERGY CONTRIBUTION    RADIAL
 FREQ.      3154.77        C  5 --  H 19          +29.6% ( 56.0%)    99.9%
 T-DIPOLE    0.2317        C  9 --  H 23          +26.1% ( 52.6%)   100.0%
 TRAVEL      0.1121        C 10 --  H 24          +21.3% ( 47.5%)   100.0%
 RED. MASS   0.2452        C  6 --  H 20          +16.4% ( 41.7%)    99.9%
 EFF. MASS   1.7002

 VIBRATION   66   66A       ATOM PAIR        ENERGY CONTRIBUTION    RADIAL
 FREQ.      3169.46        C  4 --  H 17          +34.5% ( 56.6%)    97.2%
 T-DIPOLE    0.0664        C  4 --  H 18          +32.8% ( 55.1%)    97.1%
 TRAVEL      0.1367        C  4 --  H 16          +32.4% ( 54.8%)    97.0%
 RED. MASS   0.3272        C  4 --  C  8           +0.3% (  5.4%)   100.0%
 EFF. MASS   1.1393

 SYMMETRY NUMBER FOR POINT-GROUP C1  =  1


          SYSTEM IS A GROUND STATE


    NULL



          MOLECULE IS NOT LINEAR

          THERE ARE 66 GENUINE VIBRATIONS IN THIS SYSTEM
          THIS THERMODYNAMICS CALCULATION IS LIMITED TO
          MOLECULES WHICH HAVE NO INTERNAL ROTATIONS




                    CALCULATED THERMODYNAMIC PROPERTIES
                                          *
   TEMP. (K)   PARTITION FUNCTION   H.O.F.    ENTHALPY  HEAT CAPACITY ENTROPY
                                   KCAL/MOL   CAL/MOLE    CAL/K/MOL  CAL/K/MOL


 298.00  VIB.     0.1399D+04                  4732.5944    32.8124    30.2757
         ROT.     0.8634D+06                   888.2813     2.9808    30.1432
         INT.     0.1208D+10                  5620.8757    35.7932    60.4189
         TRA.     0.1503D+28                  1480.4688     4.9680    40.5931
         TOT.                       31.661    7101.3445    40.7613   101.0119

 200.00  VIB.     0.1021D+03                  2132.9818    20.6953    19.8579
         ROT.     0.4747D+06                   596.1620     2.9808    28.9545
         INT.     0.4847D+08                  2729.1437    23.6761    48.8124
         TRA.     0.8266D+27                   993.6033     4.9680    38.6119
         TOT.                       28.282    3722.7470    28.6441    87.4243

 210.00  VIB.     0.1335D+03                  2345.3634    21.7878    20.8939
         ROT.     0.5108D+06                   625.9700     2.9808    29.0999
         INT.     0.6818D+08                  2971.3335    24.7686    49.9938
         TRA.     0.8893D+27                  1043.2834     4.9680    38.8543
         TOT.                       28.574    4014.6169    29.7366    88.8481

 220.00  VIB.     0.1744D+03                  2568.8705    22.9202    21.9334
         ROT.     0.5477D+06                   655.7781     2.9808    29.2386
         INT.     0.9552D+08                  3224.6487    25.9010    51.1720
         TRA.     0.9536D+27                  1092.9636     4.9680    39.0854
         TOT.                       28.877    4317.6123    30.8690    90.2575

 230.00  VIB.     0.2278D+03                  2803.8950    24.0909    22.9780
         ROT.     0.5854D+06                   685.5862     2.9808    29.3711
         INT.     0.1333D+09                  3489.4812    27.0717    52.3491
         TRA.     0.1019D+28                  1142.6437     4.9680    39.3063
         TOT.                       29.191    4632.1250    32.0397    91.6554

 240.00  VIB.     0.2973D+03                  3050.8082    25.2974    24.0286
         ROT.     0.6240D+06                   715.3943     2.9808    29.4980
         INT.     0.1856D+09                  3766.2025    28.2783    53.5266
         TRA.     0.1087D+28                  1192.3239     4.9680    39.5177
         TOT.                       29.518    4958.5264    33.2463    93.0443

 250.00  VIB.     0.3882D+03                  3309.9526    26.5366    25.0863
         ROT.     0.6634D+06                   745.2024     2.9808    29.6197
         INT.     0.2575D+09                  4055.1551    29.5174    54.7060
         TRA.     0.1155D+28                  1242.0041     4.9680    39.7205
         TOT.                       29.856    5297.1591    34.4854    94.4265

 260.00  VIB.     0.5067D+03                  3581.6357    27.8045    26.1517
         ROT.     0.7036D+06                   775.0105     2.9808    29.7366
         INT.     0.3565D+09                  4356.6463    30.7853    55.8883
         TRA.     0.1225D+28                  1291.6842     4.9680    39.9154
         TOT.                       30.208    5648.3305    35.7533    95.8037

 270.00  VIB.     0.6616D+03                  3866.1256    29.0972    27.2253
         ROT.     0.7446D+06                   804.8186     2.9808    29.8491
         INT.     0.4926D+09                  4670.9443    32.0780    57.0743
         TRA.     0.1297D+28                  1341.3644     4.9680    40.1029
         TOT.                       30.572    6012.3087    37.0461    97.1772

 280.00  VIB.     0.8641D+03                  4163.6489    30.4105    28.3071
         ROT.     0.7864D+06                   834.6267     2.9808    29.9575
         INT.     0.6795D+09                  4998.2756    33.3913    58.2646
         TRA.     0.1369D+28                  1391.0445     4.9680    40.2835
         TOT.                       30.949    6389.3202    38.3593    98.5481

 290.00  VIB.     0.1129D+04                  4474.3893    31.7400    29.3974
         ROT.     0.8289D+06                   864.4348     2.9808    30.0621
         INT.     0.9359D+09                  5338.8241    34.7208    59.4595
         TRA.     0.1443D+28                  1440.7247     4.9680    40.4579
         TOT.                       31.339    6779.5488    39.6888    99.9174

 300.00  VIB.     0.1476D+04                  4798.4883    33.0815    30.4961
         ROT.     0.8721D+06                   894.2429     2.9808    30.1631
         INT.     0.1287D+10                  5692.7312    36.0623    60.6592
         TRA.     0.1518D+28                  1490.4049     4.9680    40.6263
         TOT.                       31.742    7183.1361    41.0303   101.2855

 310.00  VIB.     0.1931D+04                  5136.0461    34.4311    31.6028
         ROT.     0.9161D+06                   924.0510     2.9808    30.2609
         INT.     0.1769D+10                  6060.0971    37.4119    61.8636
         TRA.     0.1595D+28                  1540.0850     4.9680    40.7892
         TOT.                       32.159    7600.1821    42.3799   102.6528

 320.00  VIB.     0.2528D+04                  5487.1235    35.7848    32.7173
         ROT.     0.9607D+06                   953.8591     2.9808    30.3555
         INT.     0.2429D+10                  6440.9826    38.7656    63.0728
         TRA.     0.1673D+28                  1589.7652     4.9680    40.9469
         TOT.                       32.590    8030.7478    43.7336   104.0197

 330.00  VIB.     0.3312D+04                  5851.7445    37.1392    33.8392
         ROT.     0.1006D+07                   983.6672     2.9808    30.4472
         INT.     0.3332D+10                  6835.4117    40.1200    64.2864
         TRA.     0.1752D+28                  1639.4454     4.9680    41.0998
         TOT.                       33.034    8474.8570    45.0880   105.3862

 340.00  VIB.     0.4341D+04                  6229.8987    38.4909    34.9680
         ROT.     0.1052D+07                  1013.4753     2.9808    30.5362
         INT.     0.4568D+10                  7243.3740    41.4718    65.5042
         TRA.     0.1832D+28                  1689.1255     4.9680    41.2481
         TOT.                       33.492    8932.4995    46.4398   106.7523

 350.00  VIB.     0.5696D+04                  6621.5446    39.8371    36.1032
         ROT.     0.1099D+07                  1043.2834     2.9808    30.6226
         INT.     0.6260D+10                  7664.8280    42.8179    66.7258
         TRA.     0.1914D+28                  1738.8057     4.9680    41.3921
         TOT.                       33.963    9403.6337    47.7859   108.1179

 360.00  VIB.     0.7480D+04                  7026.6127    41.1749    37.2442
         ROT.     0.1146D+07                  1073.0915     2.9808    30.7066
         INT.     0.8575D+10                  8099.7042    44.1558    67.9508
         TRA.     0.1996D+28                  1788.4859     4.9680    41.5321
         TOT.                       34.447    9888.1900    49.1238   109.4829

 370.00  VIB.     0.9830D+04                  7445.0081    42.5022    38.3905
         ROT.     0.1194D+07                  1102.8996     2.9808    30.7883
         INT.     0.1174D+11                  8547.9077    45.4830    69.1787
         TRA.     0.2080D+28                  1838.1660     4.9680    41.6682
         TOT.                       34.945   10386.0737    50.4510   110.8469

 380.00  VIB.     0.1293D+05                  7876.6141    43.8167    39.5414
         ROT.     0.1243D+07                  1132.7077     2.9808    30.8677
         INT.     0.1608D+11                  9009.3218    46.7976    70.4092
         TRA.     0.2165D+28                  1887.8462     4.9680    41.8007
         TOT.                       35.456   10897.1680    51.7656   112.2099

 390.00  VIB.     0.1702D+05                  8321.2948    45.1168    40.6964
         ROT.     0.1293D+07                  1162.5158     2.9808    30.9452
         INT.     0.2200D+11                  9483.8106    48.0977    71.6416
         TRA.     0.2251D+28                  1937.5263     4.9680    41.9297
         TOT.                       35.981   11421.3369    53.0657   113.5713

 400.00  VIB.     0.2242D+05                  8778.8977    46.4010    41.8549
         ROT.     0.1343D+07                  1192.3239     2.9808    31.0206
         INT.     0.3011D+11                  9971.2216    49.3818    72.8755
         TRA.     0.2338D+28                  1987.2065     4.9680    42.0555
         TOT.                       36.518   11958.4281    54.3498   114.9311

   *: NOTE: HEATS OF FORMATION ARE RELATIVE TO THE
            ELEMENTS IN THEIR STANDARD STATE AT 298K
              (=  Standard Enthalpy of Formation).

            Hvib:  Zero-point energy is not included.
                   frequencies of less than zero cm-1 are not included.
            Hrot = (3/2)RT
            Htra = (3/2)RT + pV = (5/2)RT

            Heat capacity is Cp, not Cv

           For more information, see: HTTP://OpenMOPAC.net/Manual/thermochemistry.html


           FORCE CONSTANT IN CARTESIAN COORDINATES (Millidynes/A)

    ATOM   CHEMICAL       X               Y               Z
   NUMBER   SYMBOL  FORCE CONSTANT  FORCE CONSTANT  FORCE CONSTANT

      1       C        8.745109        8.466558        8.346377
      2       C        8.072707        8.260058        8.371400
      3       C        8.130835        8.339064        8.841169
      4       C        8.013200        8.486558        8.952077
      5       C        6.825947        7.849822       12.109933
      6       C        6.724924       12.399931        7.641186
      7       C        3.825065       14.017888        9.306300
      8       C        3.824297       13.866901        9.495077
      9       C        7.476065       10.368085        9.613451
     10       C        7.482956        9.763542       10.203178
     11       H        1.128921        2.273297        2.450111
     12       H        1.151970        1.747106        3.499977
     13       H        1.179490        1.719638        3.510583
     14       H        1.323464        1.874780        3.180284
     15       H        4.846191        0.705738        0.719474
     16       H        2.236103        3.749065        0.678610
     17       H        0.882791        2.269308        3.616967
     18       H        4.953656        1.019066        0.694019
     19       H        0.720471        1.893069        3.847749
     20       H        0.677728        4.043440        1.735354
     21       H        0.583831        1.879557        3.755051
     22       H        0.573495        1.891154        3.752999
     23       H        1.800149        4.008833        0.652643
     24       H        1.865600        0.646921        3.950977



 TOTAL CPU TIME:             3.79 SECONDS

 == MOPAC DONE ==
