 *******************************************************************************
 ** Site#: 14399           For non-commercial use only        Version 13.159M **
 *******************************************************************************
 ** Cite this work as: MOPAC2012, James J. P. Stewart, Stewart Computational  **
 ** Chemistry, Version 13.159M web: HTTP://OpenMOPAC.net  Days remaining:   6 **
 *******************************************************************************
 **                                                                           **
 **                                MOPAC2012                                  **
 **                                                                           **
 *******************************************************************************

                            PM3 CALCULATION RESULTS


 *******************************************************************************
 *  CALCULATION DONE:                                Mon Jun  2 11:07:33 2014  *
 *  PM3      - The PM3 Hamiltonian to be used
 *  PRECISE  - CRITERIA TO BE INCREASED BY 100 TIMES
 *  NOSYM    - POINT-GROUP SYMMETRY SET TO C1
 *  T=       - A TIME OF 172800.0 SECONDS REQUESTED
 *  DUMP=N   - RESTART FILE WRITTEN EVERY  7200.000 SECONDS
 *******************************************************************************
pm3  precise nosym
 InChI=1S/C10H16/c1-4-6-10-7-9(5-2)8(10)3/h4-6,8-10H,2,7H2,1,3H3

   ATOM   CHEMICAL          X               Y               Z
  NUMBER   SYMBOL      (ANGSTROMS)     (ANGSTROMS)     (ANGSTROMS)
 
     1       C         -0.36020000  *   0.37120000  *  -0.79160000  *
     2       C          0.30000000  *  -0.67810000  *   0.16440000  *
     3       C         -1.70480000  *   0.05440000  *  -0.13260000  *
     4       C         -1.02040000  *  -0.74080000  *   0.93100000  *
     5       C         -0.26570000  *   0.02670000  *  -2.27690000  *
     6       C          3.83430000  *   0.59450000  *   1.09720000  *
     7       C          1.48200000  *  -0.15910000  *   0.93890000  *
     8       C         -2.43780000  *   1.27080000  *   0.37220000  *
     9       C          2.65170000  *   0.08380000  *   0.33540000  *
    10       C         -3.71090000  *   1.51880000  *   0.05720000  *
    11       H         -0.00240000  *   1.41320000  *  -0.60220000  *
    12       H          0.52580000  *  -1.65690000  *  -0.32410000  *
    13       H         -2.34630000  *  -0.61200000  *  -0.76100000  *
    14       H         -0.99250000  *  -0.24340000  *   1.93050000  *
    15       H         -1.41440000  *  -1.78020000  *   1.02140000  *
    16       H         -0.90240000  *   0.72570000  *  -2.86460000  *
    17       H          0.78730000  *   0.13760000  *  -2.62080000  *
    18       H         -0.59600000  *  -1.01590000  *  -2.48980000  *
    19       H          4.12500000  *  -0.13020000  *   1.89130000  *
    20       H          3.59830000  *   1.57820000  *   1.56280000  *
    21       H          4.70070000  *   0.72980000  *   0.41130000  *
    22       H          1.38820000  *   0.00850000  *   2.01190000  *
    23       H         -1.91310000  *   1.97790000  *   1.01470000  *
    24       H          2.75960000  *  -0.08740000  *  -0.73550000  *
    25       H         -4.20370000  *   2.41000000  *   0.44120000  *
    26       H         -4.28230000  *   0.84820000  *  -0.58260000  *
 


          CARTESIAN COORDINATES 

    NO.       ATOM         X         Y         Z

     1         C       -0.3602    0.3712   -0.7916
     2         C        0.3000   -0.6781    0.1644
     3         C       -1.7048    0.0544   -0.1326
     4         C       -1.0204   -0.7408    0.9310
     5         C       -0.2657    0.0267   -2.2769
     6         C        3.8343    0.5945    1.0972
     7         C        1.4820   -0.1591    0.9389
     8         C       -2.4378    1.2708    0.3722
     9         C        2.6517    0.0838    0.3354
    10         C       -3.7109    1.5188    0.0572
    11         H       -0.0024    1.4132   -0.6022
    12         H        0.5258   -1.6569   -0.3241
    13         H       -2.3463   -0.6120   -0.7610
    14         H       -0.9925   -0.2434    1.9305
    15         H       -1.4144   -1.7802    1.0214
    16         H       -0.9024    0.7257   -2.8646
    17         H        0.7873    0.1376   -2.6208
    18         H       -0.5960   -1.0159   -2.4898
    19         H        4.1250   -0.1302    1.8913
    20         H        3.5983    1.5782    1.5628
    21         H        4.7007    0.7298    0.4113
    22         H        1.3882    0.0085    2.0119
    23         H       -1.9131    1.9779    1.0147
    24         H        2.7596   -0.0874   -0.7355
    25         H       -4.2037    2.4100    0.4412
    26         H       -4.2823    0.8482   -0.5826

  H: (PM3): J. J. P. STEWART, J. COMP. CHEM. 10, 209 (1989).
  C: (PM3): J. J. P. STEWART, J. COMP. CHEM. 10, 209 (1989).

           Empirical Formula: C10 H16  =    26 atoms



      MOLECULAR POINT GROUP   :   C1  


      RHF CALCULATION, NO. OF DOUBLY OCCUPIED LEVELS =   28

      Geometry optimization using EF

          DIAGONAL MATRIX USED AS START HESSIAN

 CYCLE:     1 TIME:   0.012 TIME LEFT:  2.00D  GRAD.:   108.847 HEAT: 22.86168
 CYCLE:     2 TIME:   0.017 TIME LEFT:  2.00D  GRAD.:   107.674 HEAT: 21.96496
 CYCLE:     3 TIME:   0.009 TIME LEFT:  2.00D  GRAD.:   111.180 HEAT: 21.29231
 CYCLE:     4 TIME:   0.016 TIME LEFT:  2.00D  GRAD.:    49.828 HEAT: 19.03083
 CYCLE:     5 TIME:   0.016 TIME LEFT:  2.00D  GRAD.:    30.588 HEAT: 18.49945
 CYCLE:     6 TIME:   0.009 TIME LEFT:  2.00D  GRAD.:    36.857 HEAT: 18.46648
 CYCLE:     7 TIME:   0.009 TIME LEFT:  2.00D  GRAD.:    31.429 HEAT: 18.20600
 CYCLE:     8 TIME:   0.016 TIME LEFT:  2.00D  GRAD.:    18.993 HEAT: 18.00260
 CYCLE:     9 TIME:   0.016 TIME LEFT:  2.00D  GRAD.:    14.287 HEAT: 17.93367
 CYCLE:    10 TIME:   0.009 TIME LEFT:  2.00D  GRAD.:    11.437 HEAT: 17.86847
 CYCLE:    11 TIME:   0.009 TIME LEFT:  2.00D  GRAD.:    14.354 HEAT: 17.83711
 CYCLE:    12 TIME:   0.016 TIME LEFT:  2.00D  GRAD.:    11.041 HEAT: 17.80972
 CYCLE:    13 TIME:   0.009 TIME LEFT:  2.00D  GRAD.:    11.732 HEAT: 17.80187
 CYCLE:    14 TIME:   0.009 TIME LEFT:  2.00D  GRAD.:    12.922 HEAT: 17.79704
 CYCLE:    15 TIME:   0.009 TIME LEFT:  2.00D  GRAD.:    10.672 HEAT: 17.77765
 CYCLE:    16 TIME:   0.016 TIME LEFT:  2.00D  GRAD.:     4.644 HEAT: 17.75202
 CYCLE:    17 TIME:   0.015 TIME LEFT:  2.00D  GRAD.:     3.286 HEAT: 17.74587
 CYCLE:    18 TIME:   0.009 TIME LEFT:  2.00D  GRAD.:     3.024 HEAT: 17.74038
 CYCLE:    19 TIME:   0.023 TIME LEFT:  2.00D  GRAD.:     3.651 HEAT: 17.73730
 CYCLE:    20 TIME:   0.009 TIME LEFT:  2.00D  GRAD.:     3.298 HEAT: 17.72777
 CYCLE:    21 TIME:   0.009 TIME LEFT:  2.00D  GRAD.:     4.929 HEAT: 17.71731
 CYCLE:    22 TIME:   0.009 TIME LEFT:  2.00D  GRAD.:     4.082 HEAT: 17.70997
 CYCLE:    23 TIME:   0.009 TIME LEFT:  2.00D  GRAD.:     3.865 HEAT: 17.70116
 CYCLE:    24 TIME:   0.009 TIME LEFT:  2.00D  GRAD.:     4.471 HEAT: 17.69210
 CYCLE:    25 TIME:   0.009 TIME LEFT:  2.00D  GRAD.:     4.026 HEAT: 17.67775
 CYCLE:    26 TIME:   0.009 TIME LEFT:  2.00D  GRAD.:     6.621 HEAT: 17.67215
 CYCLE:    27 TIME:   0.008 TIME LEFT:  2.00D  GRAD.:     6.194 HEAT: 17.66432
 CYCLE:    28 TIME:   0.009 TIME LEFT:  2.00D  GRAD.:     5.638 HEAT: 17.65448
 CYCLE:    29 TIME:   0.009 TIME LEFT:  2.00D  GRAD.:     6.250 HEAT: 17.65346
 CYCLE:    30 TIME:   0.009 TIME LEFT:  2.00D  GRAD.:     3.680 HEAT: 17.63966
 CYCLE:    31 TIME:   0.009 TIME LEFT:  2.00D  GRAD.:     3.989 HEAT: 17.63512
 CYCLE:    32 TIME:   0.008 TIME LEFT:  2.00D  GRAD.:     2.876 HEAT: 17.62745
 CYCLE:    33 TIME:   0.008 TIME LEFT:  2.00D  GRAD.:     2.376 HEAT: 17.62081
 CYCLE:    34 TIME:   0.009 TIME LEFT:  2.00D  GRAD.:     1.887 HEAT: 17.61490
 CYCLE:    35 TIME:   0.009 TIME LEFT:  2.00D  GRAD.:     1.509 HEAT: 17.60886
 CYCLE:    36 TIME:   0.009 TIME LEFT:  2.00D  GRAD.:     1.920 HEAT: 17.60497
 CYCLE:    37 TIME:   0.009 TIME LEFT:  2.00D  GRAD.:     2.425 HEAT: 17.59892
 CYCLE:    38 TIME:   0.009 TIME LEFT:  2.00D  GRAD.:     2.291 HEAT: 17.59442
 CYCLE:    39 TIME:   0.009 TIME LEFT:  2.00D  GRAD.:     1.632 HEAT: 17.58981
 CYCLE:    40 TIME:   0.009 TIME LEFT:  2.00D  GRAD.:     1.696 HEAT: 17.58550
 CYCLE:    41 TIME:   0.009 TIME LEFT:  2.00D  GRAD.:     2.037 HEAT: 17.58141
 CYCLE:    42 TIME:   0.009 TIME LEFT:  2.00D  GRAD.:     1.671 HEAT: 17.57677
 CYCLE:    43 TIME:   0.009 TIME LEFT:  2.00D  GRAD.:     1.947 HEAT: 17.56759
 CYCLE:    44 TIME:   0.009 TIME LEFT:  2.00D  GRAD.:     2.184 HEAT: 17.55809
 CYCLE:    45 TIME:   0.009 TIME LEFT:  2.00D  GRAD.:     2.194 HEAT: 17.54576
 CYCLE:    46 TIME:   0.009 TIME LEFT:  2.00D  GRAD.:     2.567 HEAT: 17.53191
 CYCLE:    47 TIME:   0.009 TIME LEFT:  2.00D  GRAD.:     2.887 HEAT: 17.51597
 CYCLE:    48 TIME:   0.009 TIME LEFT:  2.00D  GRAD.:     3.134 HEAT: 17.50004
 CYCLE:    49 TIME:   0.009 TIME LEFT:  2.00D  GRAD.:     2.520 HEAT: 17.48588
 CYCLE:    50 TIME:   0.009 TIME LEFT:  2.00D  GRAD.:     1.942 HEAT: 17.47402
 CYCLE:    51 TIME:   0.009 TIME LEFT:  2.00D  GRAD.:     1.882 HEAT: 17.46476
 CYCLE:    52 TIME:   0.009 TIME LEFT:  2.00D  GRAD.:     2.024 HEAT: 17.45622
 CYCLE:    53 TIME:   0.009 TIME LEFT:  2.00D  GRAD.:     2.025 HEAT: 17.44800
 CYCLE:    54 TIME:   0.009 TIME LEFT:  2.00D  GRAD.:     1.757 HEAT: 17.43999
 CYCLE:    55 TIME:   0.009 TIME LEFT:  2.00D  GRAD.:     1.792 HEAT: 17.43258
 CYCLE:    56 TIME:   0.009 TIME LEFT:  2.00D  GRAD.:     1.338 HEAT: 17.42701
 CYCLE:    57 TIME:   0.009 TIME LEFT:  2.00D  GRAD.:     0.964 HEAT: 17.42361
 CYCLE:    58 TIME:   0.009 TIME LEFT:  2.00D  GRAD.:     0.791 HEAT: 17.42193
 CYCLE:    59 TIME:   0.009 TIME LEFT:  2.00D  GRAD.:     0.754 HEAT: 17.42021
 CYCLE:    60 TIME:   0.009 TIME LEFT:  2.00D  GRAD.:     0.786 HEAT: 17.41882
 CYCLE:    61 TIME:   0.009 TIME LEFT:  2.00D  GRAD.:     0.775 HEAT: 17.41736
 CYCLE:    62 TIME:   0.009 TIME LEFT:  2.00D  GRAD.:     0.780 HEAT: 17.41584
 CYCLE:    63 TIME:   0.009 TIME LEFT:  2.00D  GRAD.:     0.756 HEAT: 17.41424
 CYCLE:    64 TIME:   0.009 TIME LEFT:  2.00D  GRAD.:     0.754 HEAT: 17.41279
 CYCLE:    65 TIME:   0.009 TIME LEFT:  2.00D  GRAD.:     0.789 HEAT: 17.41138
 CYCLE:    66 TIME:   0.009 TIME LEFT:  2.00D  GRAD.:     0.782 HEAT: 17.40989
 CYCLE:    67 TIME:   0.009 TIME LEFT:  2.00D  GRAD.:     0.854 HEAT: 17.40803
 CYCLE:    68 TIME:   0.009 TIME LEFT:  2.00D  GRAD.:     0.965 HEAT: 17.40579
 CYCLE:    69 TIME:   0.009 TIME LEFT:  2.00D  GRAD.:     1.140 HEAT: 17.40290
 CYCLE:    70 TIME:   0.009 TIME LEFT:  2.00D  GRAD.:     1.542 HEAT: 17.39797
 CYCLE:    71 TIME:   0.009 TIME LEFT:  2.00D  GRAD.:     1.733 HEAT: 17.39257
 CYCLE:    72 TIME:   0.009 TIME LEFT:  2.00D  GRAD.:     3.271 HEAT: 17.36605
 CYCLE:    73 TIME:   0.013 TIME LEFT:  2.00D  GRAD.:     6.104 HEAT: 17.34097
 CYCLE:    74 TIME:   0.017 TIME LEFT:  2.00D  GRAD.:     7.001 HEAT: 17.32249
 CYCLE:    75 TIME:   0.009 TIME LEFT:  2.00D  GRAD.:     5.678 HEAT: 17.26197
 CYCLE:    76 TIME:   0.009 TIME LEFT:  2.00D  GRAD.:    10.560 HEAT: 17.23713
 CYCLE:    77 TIME:   0.017 TIME LEFT:  2.00D  GRAD.:     7.290 HEAT: 17.20077
 CYCLE:    78 TIME:   0.012 TIME LEFT:  2.00D  GRAD.:     4.433 HEAT: 17.14234
 CYCLE:    79 TIME:   0.010 TIME LEFT:  2.00D  GRAD.:     5.288 HEAT: 17.08460
 CYCLE:    80 TIME:   0.009 TIME LEFT:  2.00D  GRAD.:     6.942 HEAT: 17.00747
 CYCLE:    81 TIME:   0.009 TIME LEFT:  2.00D  GRAD.:     6.786 HEAT: 16.91230
 CYCLE:    82 TIME:   0.009 TIME LEFT:  2.00D  GRAD.:     9.243 HEAT: 16.88372
 CYCLE:    83 TIME:   0.009 TIME LEFT:  2.00D  GRAD.:     8.827 HEAT: 16.87275
 CYCLE:    84 TIME:   0.009 TIME LEFT:  2.00D  GRAD.:     4.723 HEAT: 16.81196
 CYCLE:    85 TIME:   0.009 TIME LEFT:  2.00D  GRAD.:     3.937 HEAT: 16.78999
 CYCLE:    86 TIME:   0.009 TIME LEFT:  2.00D  GRAD.:     4.445 HEAT: 16.76783
 CYCLE:    87 TIME:   0.009 TIME LEFT:  2.00D  GRAD.:     3.276 HEAT: 16.74240
 CYCLE:    88 TIME:   0.009 TIME LEFT:  2.00D  GRAD.:     4.025 HEAT: 16.72646
 CYCLE:    89 TIME:   0.009 TIME LEFT:  2.00D  GRAD.:     2.451 HEAT: 16.71083
 CYCLE:    90 TIME:   0.009 TIME LEFT:  2.00D  GRAD.:     2.828 HEAT: 16.70052
 CYCLE:    91 TIME:   0.009 TIME LEFT:  2.00D  GRAD.:     2.111 HEAT: 16.69504
 CYCLE:    92 TIME:   0.009 TIME LEFT:  2.00D  GRAD.:     2.410 HEAT: 16.68792
 CYCLE:    93 TIME:   0.009 TIME LEFT:  2.00D  GRAD.:     2.496 HEAT: 16.67668
 CYCLE:    94 TIME:   0.009 TIME LEFT:  2.00D  GRAD.:     2.405 HEAT: 16.66742
 CYCLE:    95 TIME:   0.009 TIME LEFT:  2.00D  GRAD.:     1.562 HEAT: 16.66113
 CYCLE:    96 TIME:   0.009 TIME LEFT:  2.00D  GRAD.:     1.485 HEAT: 16.65573
 CYCLE:    97 TIME:   0.009 TIME LEFT:  2.00D  GRAD.:     1.628 HEAT: 16.65140
 CYCLE:    98 TIME:   0.009 TIME LEFT:  2.00D  GRAD.:     1.627 HEAT: 16.64718
 CYCLE:    99 TIME:   0.009 TIME LEFT:  2.00D  GRAD.:     1.737 HEAT: 16.64226
 CYCLE:   100 TIME:   0.009 TIME LEFT:  2.00D  GRAD.:     1.394 HEAT: 16.63774
 CYCLE:   101 TIME:   0.009 TIME LEFT:  2.00D  GRAD.:     1.363 HEAT: 16.63441
 CYCLE:   102 TIME:   0.009 TIME LEFT:  2.00D  GRAD.:     1.317 HEAT: 16.63217
 CYCLE:   103 TIME:   0.009 TIME LEFT:  2.00D  GRAD.:     1.010 HEAT: 16.63042
 CYCLE:   104 TIME:   0.009 TIME LEFT:  2.00D  GRAD.:     1.010 HEAT: 16.62832
 CYCLE:   105 TIME:   0.011 TIME LEFT:  2.00D  GRAD.:     1.282 HEAT: 16.62561
 CYCLE:   106 TIME:   0.009 TIME LEFT:  2.00D  GRAD.:     1.576 HEAT: 16.62187
 CYCLE:   107 TIME:   0.009 TIME LEFT:  2.00D  GRAD.:     1.534 HEAT: 16.61803
 CYCLE:   108 TIME:   0.009 TIME LEFT:  2.00D  GRAD.:     1.577 HEAT: 16.61294
 CYCLE:   109 TIME:   0.009 TIME LEFT:  2.00D  GRAD.:     1.393 HEAT: 16.61011
 CYCLE:   110 TIME:   0.009 TIME LEFT:  2.00D  GRAD.:     1.410 HEAT: 16.60411
 CYCLE:   111 TIME:   0.009 TIME LEFT:  2.00D  GRAD.:     1.501 HEAT: 16.60085
 CYCLE:   112 TIME:   0.009 TIME LEFT:  2.00D  GRAD.:     1.381 HEAT: 16.59597
 CYCLE:   113 TIME:   0.009 TIME LEFT:  2.00D  GRAD.:     1.295 HEAT: 16.59201
 CYCLE:   114 TIME:   0.009 TIME LEFT:  2.00D  GRAD.:     1.220 HEAT: 16.58863
 CYCLE:   115 TIME:   0.009 TIME LEFT:  2.00D  GRAD.:     1.270 HEAT: 16.58617
 CYCLE:   116 TIME:   0.009 TIME LEFT:  2.00D  GRAD.:     1.044 HEAT: 16.58379
 CYCLE:   117 TIME:   0.009 TIME LEFT:  2.00D  GRAD.:     0.819 HEAT: 16.58175
 CYCLE:   118 TIME:   0.009 TIME LEFT:  2.00D  GRAD.:     0.821 HEAT: 16.58009
 CYCLE:   119 TIME:   0.009 TIME LEFT:  2.00D  GRAD.:     0.898 HEAT: 16.57851
 CYCLE:   120 TIME:   0.009 TIME LEFT:  2.00D  GRAD.:     0.913 HEAT: 16.57686
 CYCLE:   121 TIME:   0.009 TIME LEFT:  2.00D  GRAD.:     0.721 HEAT: 16.57514
 CYCLE:   122 TIME:   0.009 TIME LEFT:  2.00D  GRAD.:     0.514 HEAT: 16.57449
 CYCLE:   123 TIME:   0.009 TIME LEFT:  2.00D  GRAD.:     0.470 HEAT: 16.57363
 CYCLE:   124 TIME:   0.009 TIME LEFT:  2.00D  GRAD.:     0.615 HEAT: 16.57312
 CYCLE:   125 TIME:   0.009 TIME LEFT:  2.00D  GRAD.:     0.801 HEAT: 16.57200
 CYCLE:   126 TIME:   0.009 TIME LEFT:  2.00D  GRAD.:     0.920 HEAT: 16.57056
 CYCLE:   127 TIME:   0.009 TIME LEFT:  2.00D  GRAD.:     0.739 HEAT: 16.56971
 CYCLE:   128 TIME:   0.009 TIME LEFT:  2.00D  GRAD.:     0.906 HEAT: 16.56783
 CYCLE:   129 TIME:   0.009 TIME LEFT:  2.00D  GRAD.:     0.756 HEAT: 16.56692
 CYCLE:   130 TIME:   0.009 TIME LEFT:  2.00D  GRAD.:     1.308 HEAT: 16.56304
 CYCLE:   131 TIME:   0.009 TIME LEFT:  2.00D  GRAD.:     1.015 HEAT: 16.56163
 CYCLE:   132 TIME:   0.009 TIME LEFT:  2.00D  GRAD.:     1.079 HEAT: 16.55685
 CYCLE:   133 TIME:   0.009 TIME LEFT:  2.00D  GRAD.:     1.151 HEAT: 16.55467
 CYCLE:   134 TIME:   0.009 TIME LEFT:  2.00D  GRAD.:     1.513 HEAT: 16.54942
 CYCLE:   135 TIME:   0.009 TIME LEFT:  2.00D  GRAD.:     1.310 HEAT: 16.54618
 CYCLE:   136 TIME:   0.009 TIME LEFT:  2.00D  GRAD.:     1.695 HEAT: 16.54220
 CYCLE:   137 TIME:   0.009 TIME LEFT:  2.00D  GRAD.:     1.768 HEAT: 16.53755
 CYCLE:   138 TIME:   0.009 TIME LEFT:  2.00D  GRAD.:     1.174 HEAT: 16.53414
 CYCLE:   139 TIME:   0.009 TIME LEFT:  2.00D  GRAD.:     1.635 HEAT: 16.53033
 CYCLE:   140 TIME:   0.009 TIME LEFT:  2.00D  GRAD.:     1.323 HEAT: 16.52804
 CYCLE:   141 TIME:   0.009 TIME LEFT:  2.00D  GRAD.:     1.244 HEAT: 16.52590
 CYCLE:   142 TIME:   0.010 TIME LEFT:  2.00D  GRAD.:     1.639 HEAT: 16.52208
 CYCLE:   143 TIME:   0.009 TIME LEFT:  2.00D  GRAD.:     1.277 HEAT: 16.51904
 CYCLE:   144 TIME:   0.009 TIME LEFT:  2.00D  GRAD.:     1.235 HEAT: 16.51555
 CYCLE:   145 TIME:   0.009 TIME LEFT:  2.00D  GRAD.:     1.275 HEAT: 16.51288
 CYCLE:   146 TIME:   0.009 TIME LEFT:  2.00D  GRAD.:     1.395 HEAT: 16.50978
 CYCLE:   147 TIME:   0.009 TIME LEFT:  2.00D  GRAD.:     1.334 HEAT: 16.50652
 CYCLE:   148 TIME:   0.009 TIME LEFT:  2.00D  GRAD.:     1.478 HEAT: 16.50346
 CYCLE:   149 TIME:   0.009 TIME LEFT:  2.00D  GRAD.:     1.877 HEAT: 16.49972
 CYCLE:   150 TIME:   0.009 TIME LEFT:  2.00D  GRAD.:     1.862 HEAT: 16.49408
 CYCLE:   151 TIME:   0.009 TIME LEFT:  2.00D  GRAD.:     1.492 HEAT: 16.48778
 CYCLE:   152 TIME:   0.009 TIME LEFT:  2.00D  GRAD.:     1.740 HEAT: 16.48388
 CYCLE:   153 TIME:   0.009 TIME LEFT:  2.00D  GRAD.:     1.813 HEAT: 16.48022
 CYCLE:   154 TIME:   0.009 TIME LEFT:  2.00D  GRAD.:     3.335 HEAT: 16.48120
 CYCLE:   155 TIME:   0.009 TIME LEFT:  2.00D  GRAD.:     2.023 HEAT: 16.47532
 CYCLE:   156 TIME:   0.009 TIME LEFT:  2.00D  GRAD.:     1.326 HEAT: 16.47303
 CYCLE:   157 TIME:   0.009 TIME LEFT:  2.00D  GRAD.:     1.138 HEAT: 16.46976
 CYCLE:   158 TIME:   0.009 TIME LEFT:  2.00D  GRAD.:     1.398 HEAT: 16.46430
 CYCLE:   159 TIME:   0.009 TIME LEFT:  2.00D  GRAD.:     1.565 HEAT: 16.46150
 CYCLE:   160 TIME:   0.009 TIME LEFT:  2.00D  GRAD.:     1.444 HEAT: 16.45928
 CYCLE:   161 TIME:   0.009 TIME LEFT:  2.00D  GRAD.:     1.914 HEAT: 16.45686
 CYCLE:   162 TIME:   0.009 TIME LEFT:  2.00D  GRAD.:     1.364 HEAT: 16.45339
 CYCLE:   163 TIME:   0.009 TIME LEFT:  2.00D  GRAD.:     0.714 HEAT: 16.45113
 CYCLE:   164 TIME:   0.009 TIME LEFT:  2.00D  GRAD.:     0.452 HEAT: 16.45016
 CYCLE:   165 TIME:   0.009 TIME LEFT:  2.00D  GRAD.:     0.272 HEAT: 16.45007
 CYCLE:   166 TIME:   0.009 TIME LEFT:  2.00D  GRAD.:     0.229 HEAT: 16.44998
 CYCLE:   167 TIME:   0.009 TIME LEFT:  2.00D  GRAD.:     0.111 HEAT: 16.44994
 CYCLE:   168 TIME:   0.008 TIME LEFT:  2.00D  GRAD.:     0.141 HEAT: 16.44993
 CYCLE:   169 TIME:   0.009 TIME LEFT:  2.00D  GRAD.:     0.173 HEAT: 16.44991
 CYCLE:   170 TIME:   0.008 TIME LEFT:  2.00D  GRAD.:     0.124 HEAT: 16.44989
 CYCLE:   171 TIME:   0.009 TIME LEFT:  2.00D  GRAD.:     0.212 HEAT: 16.44984
 CYCLE:   172 TIME:   0.008 TIME LEFT:  2.00D  GRAD.:     0.209 HEAT: 16.44979
 CYCLE:   173 TIME:   0.009 TIME LEFT:  2.00D  GRAD.:     0.327 HEAT: 16.44964
 CYCLE:   174 TIME:   0.009 TIME LEFT:  2.00D  GRAD.:     0.357 HEAT: 16.44931
 CYCLE:   175 TIME:   0.009 TIME LEFT:  2.00D  GRAD.:     0.504 HEAT: 16.44892
 CYCLE:   176 TIME:   0.009 TIME LEFT:  2.00D  GRAD.:     0.403 HEAT: 16.44868
 CYCLE:   177 TIME:   0.009 TIME LEFT:  2.00D  GRAD.:     0.170 HEAT: 16.44843
 CYCLE:   178 TIME:   0.009 TIME LEFT:  2.00D  GRAD.:     0.111 HEAT: 16.44838
 CYCLE:   179 TIME:   0.008 TIME LEFT:  2.00D  GRAD.:     0.094 HEAT: 16.44838
 CYCLE:   180 TIME:   0.009 TIME LEFT:  2.00D  GRAD.:     0.184 HEAT: 16.44839
 CYCLE:   181 TIME:   0.009 TIME LEFT:  2.00D  GRAD.:     0.064 HEAT: 16.44837
 CYCLE:   182 TIME:   0.009 TIME LEFT:  2.00D  GRAD.:     0.069 HEAT: 16.44836
 CYCLE:   183 TIME:   0.008 TIME LEFT:  2.00D  GRAD.:     0.058 HEAT: 16.44836
 CYCLE:   184 TIME:   0.008 TIME LEFT:  2.00D  GRAD.:     0.055 HEAT: 16.44836
 CYCLE:   185 TIME:   0.008 TIME LEFT:  2.00D  GRAD.:     0.081 HEAT: 16.44834
 CYCLE:   186 TIME:   0.008 TIME LEFT:  2.00D  GRAD.:     0.088 HEAT: 16.44832
 CYCLE:   187 TIME:   0.009 TIME LEFT:  2.00D  GRAD.:     0.176 HEAT: 16.44826
 CYCLE:   188 TIME:   0.009 TIME LEFT:  2.00D  GRAD.:     0.166 HEAT: 16.44822
 CYCLE:   189 TIME:   0.010 TIME LEFT:  2.00D  GRAD.:     0.361 HEAT: 16.44814
 CYCLE:   190 TIME:   0.009 TIME LEFT:  2.00D  GRAD.:     0.142 HEAT: 16.44805
 CYCLE:   191 TIME:   0.009 TIME LEFT:  2.00D  GRAD.:     0.131 HEAT: 16.44802
 CYCLE:   192 TIME:   0.009 TIME LEFT:  2.00D  GRAD.:     0.051 HEAT: 16.44799
 CYCLE:   193 TIME:   0.008 TIME LEFT:  2.00D  GRAD.:     0.030 HEAT: 16.44799

     RMS GRADIENT =  0.02997  IS LESS THAN CUTOFF =  0.05000



 -------------------------------------------------------------------------------
pm3  precise nosym
 InChI=1S/C10H16/c1-4-6-10-7-9(5-2)8(10)3/h4-6,8-10H,2,7H2,1,3H3



     GEOMETRY OPTIMISED USING EIGENVECTOR FOLLOWING (EF).     
     SCF FIELD WAS ACHIEVED                                   


                              PM3 CALCULATION
                                                       MOPAC2012 (Version: 13.159M)
                                                       Mon Jun  2 11:07:35 2014
                                                       No. of days left =   6




          FINAL HEAT OF FORMATION =         16.44799 KCAL/MOL =      68.81837 KJ/MOL


          TOTAL ENERGY            =      -1431.01377 EV
          ELECTRONIC ENERGY       =      -8070.46695 EV  POINT GROUP:     C1  
          CORE-CORE REPULSION     =       6639.45318 EV
          COSMO AREA              =        206.71 SQUARE ANGSTROMS
          COSMO VOLUME            =        210.11 CUBIC ANGSTROMS

          GRADIENT NORM           =          0.02997
          IONIZATION POTENTIAL    =          9.718173 EV
          HOMO LUMO ENERGIES (EV) =         -9.718  0.989
          NO. OF FILLED LEVELS    =         28
          MOLECULAR WEIGHT        =        136.236

          MOLECULAR DIMENSIONS (Angstroms)

            Atom       Atom       Distance
            H    26    H    21     8.98841
            H    18    H    25     5.04851
            H    16    H    15     4.36615


          SCF CALCULATIONS        =        206
          COMPUTATION TIME        =          1.828 SECONDS




   ATOM   CHEMICAL          X               Y               Z
  NUMBER   SYMBOL      (ANGSTROMS)     (ANGSTROMS)     (ANGSTROMS)
 
     1       C         -0.45338275  *   0.38145442  *  -1.00660800  *
     2       C          0.39448055  *  -0.50945905  *  -0.05023219  *
     3       C         -1.72810905  *   0.05192262  *  -0.17434423  *
     4       C         -0.86763854  *  -0.78485618  *   0.80343064  *
     5       C         -0.49282441  *  -0.08240700  *  -2.43758265  *
     6       C          3.80969204  *   0.55072467  *   1.38522097  *
     7       C          1.46450109  *   0.22489420  *   0.66813336  *
     8       C         -2.36967270  *   1.23875247  *   0.44422745  *
     9       C          2.73690818  *  -0.17621932  *   0.67135969  *
    10       C         -3.66137237  *   1.51504095  *   0.30820493  *
    11       H         -0.17181423  *   1.45550260  *  -0.95918574  *
    12       H          0.79210323  *  -1.42047385  *  -0.54784110  *
    13       H         -2.46728237  *  -0.55760307  *  -0.73795698  *
    14       H         -0.82313229  *  -0.38973488  *   1.83054803  *
    15       H         -1.15219428  *  -1.84483287  *   0.87169042  *
    16       H         -1.22546213  *   0.49305559  *  -3.01792022  *
    17       H          0.48607902  *   0.04110599  *  -2.91841079  *
    18       H         -0.76801176  *  -1.14279374  *  -2.52072837  *
    19       H          4.28369515  *  -0.09967894  *   2.13270414  *
    20       H          3.44711313  *   1.44619245  *   1.90744768  *
    21       H          4.59109689  *   0.87040342  *   0.68263337  *
    22       H          1.15055215  *   1.12974908  *   1.20558817  *
    23       H         -1.70799658  *   1.88828242  *   1.03160175  *
    24       H          3.04627099  *  -1.08114645  *   0.13308970  *
    25       H         -4.12423594  *   2.38513489  *   0.76361216  *
    26       H         -4.34723289  *   0.89641184  *  -0.26450313  *

           Empirical Formula: C10 H16  =    26 atoms



      MOLECULAR POINT GROUP   :   C1  


                  EIGENVALUES  
 -41.59722 -35.36227 -32.57268 -29.99644 -27.21948 -23.34896 -22.55243 -20.21771
 -19.33510 -18.67857 -16.82349 -16.39199 -15.47913 -15.21061 -14.75379 -14.38738
 -14.21684 -14.00209 -13.21538 -13.03494 -12.80959 -12.54253 -12.12311 -11.72133
 -11.50250 -11.36940 -10.13188  -9.71817   0.98933   1.13566   3.21644   3.25720
   3.58201   3.63291   3.66644   3.78718   3.89855   3.92754   3.98145   4.08219
   4.16163   4.20261   4.24665   4.31473   4.40476   4.50290   4.56053   4.67663
   4.75273   4.82456   5.12033   5.30773   5.65370   5.88093   5.91757   6.03788


              NET ATOMIC CHARGES AND DIPOLE CONTRIBUTIONS

  ATOM NO.   TYPE          CHARGE      No. of ELECS.   s-Pop       p-Pop       
    1          C          -0.083419        4.0834     1.19307     2.89034
    2          C          -0.061826        4.0618     1.18152     2.88031
    3          C          -0.068196        4.0682     1.18277     2.88543
    4          C          -0.100477        4.1005     1.17578     2.92469
    5          C          -0.101723        4.1017     1.13699     2.96473
    6          C          -0.074954        4.0750     1.12528     2.94967
    7          C          -0.145437        4.1454     1.19503     2.95040
    8          C          -0.128121        4.1281     1.19380     2.93432
    9          C          -0.141485        4.1415     1.19392     2.94756
   10          C          -0.160160        4.1602     1.18289     2.97727
   11          H           0.078644        0.9214     0.92136
   12          H           0.076728        0.9233     0.92327
   13          H           0.077920        0.9221     0.92208
   14          H           0.064468        0.9355     0.93553
   15          H           0.056350        0.9436     0.94365
   16          H           0.041250        0.9587     0.95875
   17          H           0.041317        0.9587     0.95868
   18          H           0.039726        0.9603     0.96027
   19          H           0.044099        0.9559     0.95590
   20          H           0.040987        0.9590     0.95901
   21          H           0.044116        0.9559     0.95588
   22          H           0.103374        0.8966     0.89663
   23          H           0.098493        0.9015     0.90151
   24          H           0.098494        0.9015     0.90151
   25          H           0.078486        0.9215     0.92151
   26          H           0.081346        0.9187     0.91865
 DIPOLE           X         Y         Z       TOTAL
 POINT-CHG.     0.264    -0.037    -0.043     0.270
 HYBRID        -0.002     0.022     0.017     0.028
 SUM            0.262    -0.015    -0.026     0.264


          ATOMIC ORBITAL ELECTRON POPULATIONS

    Atom      s        px        py        pz   
    1  C   1.19307   0.95286   0.99773   0.93975
    2  C   1.18152   0.93585   0.97967   0.96479
    3  C   1.18277   0.95851   0.95589   0.97103
    4  C   1.17578   0.95262   0.99480   0.97727
    5  C   1.13699   1.00928   1.00346   0.95199
    6  C   1.12528   0.97236   0.98910   0.98821
    7  C   1.19503   0.94827   0.99766   1.00447
    8  C   1.19380   0.96616   0.97584   0.99232
    9  C   1.19392   0.95264   0.99596   0.99896
   10  C   1.18289   0.95950   1.00794   1.00982
   11  H   0.92136
   12  H   0.92327
   13  H   0.92208
   14  H   0.93553
   15  H   0.94365
   16  H   0.95875
   17  H   0.95868
   18  H   0.96027
   19  H   0.95590
   20  H   0.95901
   21  H   0.95588
   22  H   0.89663
   23  H   0.90151
   24  H   0.90151
   25  H   0.92151
   26  H   0.91865
 *******************************************************************************
 ** Site#: 14399           For non-commercial use only        Version 13.159M **
 *******************************************************************************
 ** Cite this work as: MOPAC2012, James J. P. Stewart, Stewart Computational  **
 ** Chemistry, Version 13.159M web: HTTP://OpenMOPAC.net  Days remaining:   6 **
 *******************************************************************************
 **                                                                           **
 **                                MOPAC2012                                  **
 **                                                                           **
 *******************************************************************************

                            PM3 CALCULATION RESULTS


 *******************************************************************************
 *  CALCULATION DONE:                                Mon Jun  2 11:07:35 2014  *
 *  PM3      - The PM3 Hamiltonian to be used
 *  OLDGEO   - PREVIOUS GEOMETRY TO BE USED
 *  PRECISE  - CRITERIA TO BE INCREASED BY 100 TIMES
 *  NOSYM    - POINT-GROUP SYMMETRY SET TO C1
 *  T=       - A TIME OF 172800.0 SECONDS REQUESTED
 *  DUMP=N   - RESTART FILE WRITTEN EVERY  7200.000 SECONDS
 *  THERMO   - THERMODYNAMIC QUANTITIES TO BE CALCULATED
 *******************************************************************************
oldgeo thermo nosym precise  pm3

   ATOM   CHEMICAL          X               Y               Z
  NUMBER   SYMBOL      (ANGSTROMS)     (ANGSTROMS)     (ANGSTROMS)
 
     1       C         -0.45338275  *   0.38145442  *  -1.00660800  *
     2       C          0.39448055  *  -0.50945905  *  -0.05023219  *
     3       C         -1.72810905  *   0.05192262  *  -0.17434423  *
     4       C         -0.86763854  *  -0.78485618  *   0.80343064  *
     5       C         -0.49282441  *  -0.08240700  *  -2.43758265  *
     6       C          3.80969204  *   0.55072467  *   1.38522097  *
     7       C          1.46450109  *   0.22489420  *   0.66813336  *
     8       C         -2.36967270  *   1.23875247  *   0.44422745  *
     9       C          2.73690818  *  -0.17621932  *   0.67135969  *
    10       C         -3.66137237  *   1.51504095  *   0.30820493  *
    11       H         -0.17181423  *   1.45550260  *  -0.95918574  *
    12       H          0.79210323  *  -1.42047385  *  -0.54784110  *
    13       H         -2.46728237  *  -0.55760307  *  -0.73795698  *
    14       H         -0.82313229  *  -0.38973488  *   1.83054803  *
    15       H         -1.15219428  *  -1.84483287  *   0.87169042  *
    16       H         -1.22546213  *   0.49305559  *  -3.01792022  *
    17       H          0.48607902  *   0.04110599  *  -2.91841079  *
    18       H         -0.76801176  *  -1.14279374  *  -2.52072837  *
    19       H          4.28369515  *  -0.09967894  *   2.13270414  *
    20       H          3.44711313  *   1.44619245  *   1.90744768  *
    21       H          4.59109689  *   0.87040342  *   0.68263337  *
    22       H          1.15055215  *   1.12974908  *   1.20558817  *
    23       H         -1.70799658  *   1.88828242  *   1.03160175  *
    24       H          3.04627099  *  -1.08114645  *   0.13308970  *
    25       H         -4.12423594  *   2.38513489  *   0.76361216  *
    26       H         -4.34723289  *   0.89641184  *  -0.26450313  *
 


          CARTESIAN COORDINATES 

    NO.       ATOM         X         Y         Z

     1         C       -0.4534    0.3815   -1.0066
     2         C        0.3945   -0.5095   -0.0502
     3         C       -1.7281    0.0519   -0.1743
     4         C       -0.8676   -0.7849    0.8034
     5         C       -0.4928   -0.0824   -2.4376
     6         C        3.8097    0.5507    1.3852
     7         C        1.4645    0.2249    0.6681
     8         C       -2.3697    1.2388    0.4442
     9         C        2.7369   -0.1762    0.6714
    10         C       -3.6614    1.5150    0.3082
    11         H       -0.1718    1.4555   -0.9592
    12         H        0.7921   -1.4205   -0.5478
    13         H       -2.4673   -0.5576   -0.7380
    14         H       -0.8231   -0.3897    1.8305
    15         H       -1.1522   -1.8448    0.8717
    16         H       -1.2255    0.4931   -3.0179
    17         H        0.4861    0.0411   -2.9184
    18         H       -0.7680   -1.1428   -2.5207
    19         H        4.2837   -0.0997    2.1327
    20         H        3.4471    1.4462    1.9074
    21         H        4.5911    0.8704    0.6826
    22         H        1.1506    1.1297    1.2056
    23         H       -1.7080    1.8883    1.0316
    24         H        3.0463   -1.0811    0.1331
    25         H       -4.1242    2.3851    0.7636
    26         H       -4.3472    0.8964   -0.2645

  H: (PM3): J. J. P. STEWART, J. COMP. CHEM. 10, 209 (1989).
  C: (PM3): J. J. P. STEWART, J. COMP. CHEM. 10, 209 (1989).

           Empirical Formula: C10 H16  =    26 atoms



      MOLECULAR POINT GROUP   :   C1  


      RHF CALCULATION, NO. OF DOUBLY OCCUPIED LEVELS =   28



          HEAT OF FORMATION =      16.447986 KCALS/MOLE


          INTERNAL COORDINATE DERIVATIVES

   NUMBER  ATOM       BOND         ANGLE      DIHEDRAL

     1       C     -0.000047     0.000871    -0.003414
     2       C     -0.000580    -0.000168    -0.001296
     3       C      0.002155     0.000265     0.001158
     4       C     -0.001029    -0.001141     0.005128
     5       C     -0.009145    -0.004107    -0.003616
     6       C      0.000589    -0.003595     0.005692
     7       C      0.006777    -0.003911    -0.001633
     8       C     -0.002259    -0.006863    -0.000408
     9       C     -0.007740    -0.005270     0.002690
    10       C      0.005088     0.006872     0.001787
    11       H      0.001760    -0.001107     0.001779
    12       H      0.000190     0.000912     0.000187
    13       H      0.000439     0.000647    -0.000473
    14       H     -0.000142     0.002192    -0.000760
    15       H     -0.000513    -0.002355    -0.002989
    16       H      0.007013     0.000319     0.001660
    17       H     -0.000917     0.004564     0.001677
    18       H      0.000726    -0.001102     0.001221
    19       H      0.002645     0.002347     0.000021
    20       H      0.001299     0.003576    -0.005508
    21       H     -0.002220     0.005308     0.002350
    22       H      0.000668    -0.002220     0.001535
    23       H     -0.002398    -0.000636    -0.000658
    24       H      0.000602     0.003858    -0.004929
    25       H     -0.003564    -0.000695    -0.001750
    26       H      0.000603     0.001439     0.000547


          GRADIENT NORM =   0.02782


          TIME FOR SCF CALCULATION =    0.01

          TIME FOR DERIVATIVES     =    0.01

          MOLECULAR WEIGHT =  136.24



          ROTATIONAL CONSTANTS IN CM(-1)

          A =    0.07647941   B =    0.02183547   C =    0.01930088



           PRINCIPAL MOMENTS OF INERTIA IN UNITS OF 10**(-40)*GRAM-CM**2

          A =      366.0171   B =     1281.9866   C =     1450.3364


          ORIENTATION OF MOLECULE IN FORCE CALCULATION

    NO.       ATOM         X         Y         Z

     1          C      -0.9234   -0.2982    0.5694
     2          C       0.6346   -0.2982    0.5694
     3          C      -0.9178    1.2594    0.5694
     4          C       0.6292    1.2491    0.5118
     5          C      -1.5580   -0.9301    1.7787
     6          C       2.7681   -2.5581   -1.7085
     7          C       1.2379   -0.9476   -0.6199
     8          C      -1.5659    1.8662   -0.6199
     9          C       2.1617   -1.9056   -0.5272
    10          C      -2.5103    2.7956   -0.5328
    11          H      -1.3552   -0.7290   -0.3596
    12          H       1.0665   -0.6983    1.5123
    13          H      -1.3175    1.6936    1.5114
    14          H       1.0580    1.6764   -0.4084
    15          H       1.1224    1.7409    1.3627
    16          H      -2.6421   -0.7584    1.7894
    17          H      -1.3911   -2.0149    1.7891
    18          H      -1.1524   -0.5264    2.7166
    19          H       3.8568   -2.4130   -1.7118
    20          H       2.3793   -2.1704   -2.6596
    21          H       2.5792   -3.6400   -1.6897
    22          H       0.8796   -0.5936   -1.5959
    23          H      -1.2167    1.4999   -1.5939
    24          H       2.5172   -2.2563    0.4501
    25          H      -2.9802    3.2354   -1.4072
    26          H      -2.8814    3.1831    0.4123


    FIRST DERIVATIVES WILL BE USED IN THE CALCULATION OF SECOND DERIVATIVES

          ESTIMATED TIME TO COMPLETE CALCULATION =        3.93 SECONDS

    FOR POINT-GROUP C1   THERE ARE   1 UNIQUE SYMMETRY FUNCTIONS.

 STEP:   1 TIME =     0.04 SECS, INTEGRAL =      0.04 TIME LEFT: 172799.95
 STEP:   2 TIME =     0.04 SECS, INTEGRAL =      0.08 TIME LEFT: 172799.91
 STEP:   3 TIME =     0.04 SECS, INTEGRAL =      0.12 TIME LEFT: 172799.87
 STEP:   4 TIME =     0.04 SECS, INTEGRAL =      0.16 TIME LEFT: 172799.83
 STEP:   5 TIME =     0.04 SECS, INTEGRAL =      0.20 TIME LEFT: 172799.79
 STEP:   6 TIME =     0.04 SECS, INTEGRAL =      0.24 TIME LEFT: 172799.75
 STEP:   7 TIME =     0.04 SECS, INTEGRAL =      0.27 TIME LEFT: 172799.71
 STEP:   8 TIME =     0.04 SECS, INTEGRAL =      0.31 TIME LEFT: 172799.67
 STEP:   9 TIME =     0.04 SECS, INTEGRAL =      0.35 TIME LEFT: 172799.63
 STEP:  10 TIME =     0.04 SECS, INTEGRAL =      0.39 TIME LEFT: 172799.60
 STEP:  11 TIME =     0.04 SECS, INTEGRAL =      0.43 TIME LEFT: 172799.56
 STEP:  12 TIME =     0.04 SECS, INTEGRAL =      0.47 TIME LEFT: 172799.51
 STEP:  13 TIME =     0.04 SECS, INTEGRAL =      0.51 TIME LEFT: 172799.47
 STEP:  14 TIME =     0.04 SECS, INTEGRAL =      0.55 TIME LEFT: 172799.44
 STEP:  15 TIME =     0.04 SECS, INTEGRAL =      0.59 TIME LEFT: 172799.40
 STEP:  16 TIME =     0.04 SECS, INTEGRAL =      0.63 TIME LEFT: 172799.36
 STEP:  17 TIME =     0.04 SECS, INTEGRAL =      0.67 TIME LEFT: 172799.32
 STEP:  18 TIME =     0.04 SECS, INTEGRAL =      0.71 TIME LEFT: 172799.28
 STEP:  19 TIME =     0.04 SECS, INTEGRAL =      0.75 TIME LEFT: 172799.24
 STEP:  20 TIME =     0.04 SECS, INTEGRAL =      0.79 TIME LEFT: 172799.20
 STEP:  21 TIME =     0.04 SECS, INTEGRAL =      0.83 TIME LEFT: 172799.16
 STEP:  22 TIME =     0.04 SECS, INTEGRAL =      0.87 TIME LEFT: 172799.12
 STEP:  23 TIME =     0.04 SECS, INTEGRAL =      0.91 TIME LEFT: 172799.08
 STEP:  24 TIME =     0.05 SECS, INTEGRAL =      0.96 TIME LEFT: 172799.03
 STEP:  25 TIME =     0.04 SECS, INTEGRAL =      1.00 TIME LEFT: 172798.99
 STEP:  26 TIME =     0.04 SECS, INTEGRAL =      1.04 TIME LEFT: 172798.95
 STEP:  27 TIME =     0.04 SECS, INTEGRAL =      1.07 TIME LEFT: 172798.91
 STEP:  28 TIME =     0.04 SECS, INTEGRAL =      1.11 TIME LEFT: 172798.87
 STEP:  29 TIME =     0.04 SECS, INTEGRAL =      1.15 TIME LEFT: 172798.83
 STEP:  30 TIME =     0.04 SECS, INTEGRAL =      1.19 TIME LEFT: 172798.79
 STEP:  31 TIME =     0.04 SECS, INTEGRAL =      1.23 TIME LEFT: 172798.75
 STEP:  32 TIME =     0.04 SECS, INTEGRAL =      1.27 TIME LEFT: 172798.71
 STEP:  33 TIME =     0.04 SECS, INTEGRAL =      1.31 TIME LEFT: 172798.68
 STEP:  34 TIME =     0.04 SECS, INTEGRAL =      1.35 TIME LEFT: 172798.64
 STEP:  35 TIME =     0.04 SECS, INTEGRAL =      1.39 TIME LEFT: 172798.60
 STEP:  36 TIME =     0.04 SECS, INTEGRAL =      1.43 TIME LEFT: 172798.56
 STEP:  37 TIME =     0.04 SECS, INTEGRAL =      1.47 TIME LEFT: 172798.52
 STEP:  38 TIME =     0.04 SECS, INTEGRAL =      1.51 TIME LEFT: 172798.48
 STEP:  39 TIME =     0.04 SECS, INTEGRAL =      1.55 TIME LEFT: 172798.44
 STEP:  40 TIME =     0.04 SECS, INTEGRAL =      1.59 TIME LEFT: 172798.40
 STEP:  41 TIME =     0.04 SECS, INTEGRAL =      1.63 TIME LEFT: 172798.36
 STEP:  42 TIME =     0.04 SECS, INTEGRAL =      1.67 TIME LEFT: 172798.32
 STEP:  43 TIME =     0.04 SECS, INTEGRAL =      1.71 TIME LEFT: 172798.28
 STEP:  44 TIME =     0.04 SECS, INTEGRAL =      1.74 TIME LEFT: 172798.24
 STEP:  45 TIME =     0.04 SECS, INTEGRAL =      1.78 TIME LEFT: 172798.20
 STEP:  46 TIME =     0.04 SECS, INTEGRAL =      1.82 TIME LEFT: 172798.17
 STEP:  47 TIME =     0.04 SECS, INTEGRAL =      1.86 TIME LEFT: 172798.13
 STEP:  48 TIME =     0.04 SECS, INTEGRAL =      1.90 TIME LEFT: 172798.09
 STEP:  49 TIME =     0.04 SECS, INTEGRAL =      1.94 TIME LEFT: 172798.05
 STEP:  50 TIME =     0.04 SECS, INTEGRAL =      1.98 TIME LEFT: 172798.01
 STEP:  51 TIME =     0.04 SECS, INTEGRAL =      2.02 TIME LEFT: 172797.97
 STEP:  52 TIME =     0.04 SECS, INTEGRAL =      2.06 TIME LEFT: 172797.93
 STEP:  53 TIME =     0.04 SECS, INTEGRAL =      2.10 TIME LEFT: 172797.89
 STEP:  54 TIME =     0.04 SECS, INTEGRAL =      2.14 TIME LEFT: 172797.85
 STEP:  55 TIME =     0.04 SECS, INTEGRAL =      2.17 TIME LEFT: 172797.81
 STEP:  56 TIME =     0.04 SECS, INTEGRAL =      2.21 TIME LEFT: 172797.77
 STEP:  57 TIME =     0.04 SECS, INTEGRAL =      2.25 TIME LEFT: 172797.73
 STEP:  58 TIME =     0.04 SECS, INTEGRAL =      2.29 TIME LEFT: 172797.69
 STEP:  59 TIME =     0.04 SECS, INTEGRAL =      2.33 TIME LEFT: 172797.65
 STEP:  60 TIME =     0.04 SECS, INTEGRAL =      2.37 TIME LEFT: 172797.62
 STEP:  61 TIME =     0.04 SECS, INTEGRAL =      2.41 TIME LEFT: 172797.58
 STEP:  62 TIME =     0.04 SECS, INTEGRAL =      2.45 TIME LEFT: 172797.54
 STEP:  63 TIME =     0.04 SECS, INTEGRAL =      2.49 TIME LEFT: 172797.50
 STEP:  64 TIME =     0.04 SECS, INTEGRAL =      2.53 TIME LEFT: 172797.46
 STEP:  65 TIME =     0.04 SECS, INTEGRAL =      2.57 TIME LEFT: 172797.42
 STEP:  66 TIME =     0.04 SECS, INTEGRAL =      2.61 TIME LEFT: 172797.38
 STEP:  67 TIME =     0.04 SECS, INTEGRAL =      2.65 TIME LEFT: 172797.34
 STEP:  68 TIME =     0.04 SECS, INTEGRAL =      2.69 TIME LEFT: 172797.29
 STEP:  69 TIME =     0.04 SECS, INTEGRAL =      2.73 TIME LEFT: 172797.26
 STEP:  70 TIME =     0.04 SECS, INTEGRAL =      2.77 TIME LEFT: 172797.22
 STEP:  71 TIME =     0.04 SECS, INTEGRAL =      2.81 TIME LEFT: 172797.18
 STEP:  72 TIME =     0.04 SECS, INTEGRAL =      2.85 TIME LEFT: 172797.14
 STEP:  73 TIME =     0.04 SECS, INTEGRAL =      2.89 TIME LEFT: 172797.10
 STEP:  74 TIME =     0.04 SECS, INTEGRAL =      2.93 TIME LEFT: 172797.06
 STEP:  75 TIME =     0.04 SECS, INTEGRAL =      2.97 TIME LEFT: 172797.01
 STEP:  76 TIME =     0.04 SECS, INTEGRAL =      3.02 TIME LEFT: 172796.97
 STEP:  77 TIME =     0.04 SECS, INTEGRAL =      3.06 TIME LEFT: 172796.93
 STEP:  78 TIME =     0.04 SECS, INTEGRAL =      3.09 TIME LEFT: 172796.89

(To convert to Hartree/Bohr^2, multiply by (10^(-21) x N x a0^2)/(4.184 x 627.51) = 0.0642)


           FORCE MATRIX IN MILLIDYNES/ANGSTROM


                  C  1       C  2       C  3       C  4       C  5       C  6
 ------------------------------------------------------------------------------
     C    1  14.342299
     C    2   3.124282  14.840398
     C    3   3.135485   1.775061  14.839249
     C    4   1.804075   3.428850   3.437980  14.297326
     C    5   4.641846   0.550124   0.551619   0.040923  14.524881
     C    6   0.019041   0.144935   0.002118   0.018779   0.002701  14.720111
     C    7   0.587901   5.066435   0.042381   0.594785   0.033233   0.847405
     C    8   0.586747   0.043248   5.051620   0.594194   0.034197   0.000769
     C    9   0.032283   0.849063   0.004131   0.033807   0.003940   5.267855
     C   10   0.034729   0.004016   0.853807   0.036395   0.005925   0.001003
     H   11   4.402437   0.437649   0.437569   0.025545   0.421538   0.001145
     H   12   0.435414   4.389091   0.026413   0.426034   0.033597   0.002011
     H   13   0.435148   0.026507   4.392724   0.426036   0.033443   0.000282
     H   14   0.028455   0.453418   0.453193   4.663790   0.001952   0.001217
     H   15   0.030903   0.444334   0.445195   4.719880   0.003828   0.002547
     H   16   0.451202   0.047988   0.012280   0.003553   4.747073   0.000505
     H   17   0.450972   0.012400   0.048288   0.003531   4.747021   0.000326
     H   18   0.468639   0.020706   0.020636   0.001797   4.707722   0.000234
     H   19   0.002345   0.019439   0.000287   0.003079   0.000254   4.706811
     H   20   0.000606   0.002097   0.000214   0.000600   0.000226   4.724635
     H   21   0.003065   0.019452   0.000423   0.002265   0.000764   4.706772
     H   22   0.019011   0.434021   0.001657   0.019281   0.001447   0.081938
     H   23   0.019094   0.001778   0.436536   0.018942   0.001353   0.000188
     H   24   0.007868   0.085145   0.000954   0.007735   0.001564   0.423795
     H   25   0.016834   0.001691   0.138446   0.016530   0.002023   0.000184
     H   26   0.009897   0.001046   0.099024   0.009784   0.001494   0.000238


                  C  7       C  8       C  9       C 10       H 11       H 12
 ------------------------------------------------------------------------------
     C    7  18.328659
     C    8   0.008783  18.322067
     C    9  10.666421   0.001398  18.184190
     C   10   0.001247  11.073578   0.002270  18.041754
     H   11   0.037879   0.038651   0.002875   0.003022   4.912429
     H   12   0.444531   0.003218   0.055060   0.000672   0.028639   4.891411
     H   13   0.003102   0.444949   0.000431   0.052650   0.028732   0.002473
     H   14   0.031306   0.031652   0.003165   0.003207   0.002593   0.030316
     H   15   0.031816   0.032432   0.003383   0.004694   0.001048   0.027364
     H   16   0.006167   0.002346   0.000710   0.000644   0.029695   0.002848
     H   17   0.002506   0.006270   0.000582   0.001262   0.029785   0.005415
     H   18   0.000887   0.000901   0.000715   0.000583   0.044362   0.021818
     H   19   0.035781   0.000385   0.438929   0.000371   0.000182   0.000453
     H   20   0.041675   0.000573   0.479106   0.000405   0.000246   0.000567
     H   21   0.035486   0.000286   0.438859   0.000497   0.000345   0.000486
     H   22   4.744610   0.003410   0.467951   0.001536   0.020019   0.036252
     H   23   0.003373   4.766147   0.001605   0.453683   0.020447   0.000821
     H   24   0.470266   0.000745   4.771854   0.000461   0.000800   0.029877
     H   25   0.000609   0.461040   0.000635   5.106662   0.000946   0.000353
     H   26   0.000340   0.490606   0.000365   5.070292   0.000759   0.000173


                  H 13       H 14       H 15       H 16       H 17       H 18
 ------------------------------------------------------------------------------
     H   13   4.894769
     H   14   0.030380   5.294752
     H   15   0.027301   0.548833   5.334873
     H   16   0.005442   0.000494   0.000657   5.472377
     H   17   0.002878   0.000564   0.000686   0.566531   5.472270
     H   18   0.021777   0.000535   0.000796   0.571483   0.571553   5.448601
     H   19   0.000076   0.000302   0.000597   0.000139   0.000165   0.000104
     H   20   0.000129   0.000305   0.000146   0.000143   0.000110   0.000069
     H   21   0.000123   0.000214   0.000254   0.000260   0.000114   0.000106
     H   22   0.000783   0.018961   0.001357   0.000443   0.000470   0.000573
     H   23   0.036924   0.018682   0.001414   0.000504   0.000407   0.000638
     H   24   0.000207   0.000784   0.001244   0.000395   0.000301   0.000256
     H   25   0.001979   0.001051   0.001955   0.000392   0.000449   0.000173
     H   26   0.029550   0.000724   0.001446   0.000261   0.000310   0.000194


                  H 19       H 20       H 21       H 22       H 23       H 24
 ------------------------------------------------------------------------------
     H   19   5.425919
     H   20   0.564652   5.451125
     H   21   0.576604   0.564441   5.426046
     H   22   0.009098   0.029510   0.009097   5.124372
     H   23   0.000147   0.000207   0.000114   0.006234   5.136892
     H   24   0.024077   0.041012   0.024103   0.103741   0.000336   5.149750
     H   25   0.000149   0.000094   0.000094   0.000323   0.078236   0.000117
     H   26   0.000149   0.000118   0.000086   0.000326   0.117066   0.000122


                  H 25       H 26
 ------------------------------
     H   25   5.494547
     H   26   0.422451   5.466052


          HEAT OF FORMATION =      16.447986 KCALS/MOLE

          ZERO POINT ENERGY     145.124 KCAL/MOL


           NORMAL COORDINATE ANALYSIS (Total motion = 1 Angstrom)


   Root No.       1         2         3         4         5         6         7         8

                 1 A       2 A       3 A       4 A       5 A       6 A       7 A       8 A   

                  45.6      68.5      84.2     128.9     168.4     178.5     200.1     258.6
  
           1    0.0068   -0.0160    0.0000   -0.0076    0.0024   -0.0069    0.0120   -0.0001
           2    0.0057    0.0005   -0.0189   -0.0010    0.0003    0.0046   -0.0027   -0.0156
           3   -0.0207    0.0028    0.0039    0.0051   -0.0016    0.0003    0.0021   -0.0131
           4    0.0067   -0.0162    0.0002   -0.0077    0.0030   -0.0077    0.0132    0.0024
           5    0.0111   -0.0200    0.0077   -0.0103    0.0035   -0.0053    0.0014   -0.0081
           6   -0.0174   -0.0080   -0.0036   -0.0044    0.0081   -0.0036    0.0252   -0.0066
           7    0.0019    0.0045   -0.0266    0.0015    0.0003    0.0029    0.0077   -0.0099
           8    0.0056    0.0005   -0.0190   -0.0010    0.0001    0.0053   -0.0038   -0.0173
           9   -0.0059   -0.0035   -0.0031   -0.0032    0.0039    0.0000   -0.0133   -0.0158
          10    0.0010    0.0035   -0.0262    0.0007    0.0008    0.0032    0.0070   -0.0098
          11    0.0104   -0.0202    0.0069   -0.0102    0.0028   -0.0057    0.0013   -0.0068
          12   -0.0306   -0.0213   -0.0108   -0.0121    0.0062   -0.0012   -0.0178    0.0267
          13    0.0047   -0.0164    0.0211   -0.0046   -0.0091    0.0088   -0.0291   -0.0117
          14   -0.0102    0.0163   -0.0263    0.0155   -0.0164   -0.0030    0.0142    0.0406
          15   -0.0304    0.0110    0.0114    0.0157   -0.0172    0.0049   -0.0117    0.0121
          16    0.0105    0.0321    0.0019    0.0210   -0.0362    0.0067   -0.0140    0.0044
          17   -0.0328    0.0141   -0.0002    0.0128   -0.0223    0.0041    0.0187   -0.0223
          18    0.0307    0.0033    0.0067   -0.0011   -0.0025    0.0016   -0.0232   -0.0007
          19    0.0146   -0.0225    0.0043   -0.0066   -0.0081   -0.0110    0.0181    0.0234
          20   -0.0036   -0.0315    0.0082   -0.0105   -0.0065   -0.0079   -0.0068    0.0198
          21   -0.0052   -0.0050   -0.0016   -0.0039    0.0084   -0.0038    0.0332   -0.0143
          22   -0.0232   -0.0031   -0.0301   -0.0042    0.0048    0.0085   -0.0156   -0.0064
          23    0.0191    0.0065   -0.0224   -0.0020    0.0004    0.0120   -0.0146   -0.0042
          24    0.0149    0.0038   -0.0030   -0.0005    0.0014    0.0003   -0.0057   -0.0098
          25    0.0034    0.0227    0.0008    0.0050    0.0510   -0.0069    0.0098    0.0141
          26   -0.0126    0.0124    0.0053    0.0007    0.0501   -0.0037   -0.0163    0.0100
          27    0.0157   -0.0006    0.0030   -0.0025    0.0023   -0.0013    0.0101   -0.0133
          28   -0.0266    0.0068    0.0479   -0.0002    0.0034   -0.0027    0.0003   -0.0001
          29    0.0127    0.0156    0.0571    0.0017   -0.0007    0.0007    0.0002    0.0003
          30    0.0469    0.0152   -0.0048    0.0045   -0.0038    0.0010    0.0124    0.0201
          31    0.0118   -0.0286    0.0023   -0.0164    0.0106   -0.0121    0.0343    0.0023
          32    0.0146    0.0021   -0.0314   -0.0048    0.0065    0.0055   -0.0121   -0.0360
          33   -0.0272    0.0080    0.0087    0.0112   -0.0090    0.0026   -0.0045   -0.0033
          34    0.0038   -0.0167    0.0112   -0.0060    0.0013   -0.0114    0.0072   -0.0032
          35    0.0237   -0.0174    0.0205   -0.0087    0.0052   -0.0098    0.0205   -0.0260
          36   -0.0105   -0.0066   -0.0031   -0.0044    0.0094   -0.0036    0.0347   -0.0116
          37    0.0181    0.0221   -0.0305    0.0104   -0.0031    0.0069    0.0163   -0.0295
          38   -0.0067    0.0086   -0.0230    0.0056   -0.0026    0.0101    0.0011   -0.0260
          39    0.0069    0.0004   -0.0029   -0.0023    0.0034   -0.0005   -0.0113   -0.0184
          40   -0.0162   -0.0020   -0.0391   -0.0022    0.0014    0.0058    0.0005    0.0153
          41    0.0028   -0.0346    0.0099   -0.0174    0.0009   -0.0073   -0.0241    0.0195
          42   -0.0423   -0.0306   -0.0154   -0.0169    0.0057   -0.0007   -0.0329    0.0513
          43    0.0141    0.0203   -0.0301    0.0087   -0.0010    0.0074    0.0087   -0.0413
          44    0.0204   -0.0188    0.0196   -0.0086    0.0050   -0.0108    0.0294   -0.0243
          45   -0.0440   -0.0319   -0.0159   -0.0177    0.0060   -0.0007   -0.0353    0.0555
          46    0.0038   -0.0132    0.0166   -0.0010   -0.0126   -0.0250   -0.0311   -0.0111
          47   -0.0157    0.0363   -0.0552    0.0377   -0.0371   -0.2135    0.0058    0.0472
          48   -0.0333    0.0202    0.0148    0.0287   -0.0375   -0.1006   -0.0608   -0.0084
          49    0.0099   -0.0363    0.0502   -0.0266    0.0112    0.2194   -0.0213   -0.0171
          50   -0.0095    0.0133   -0.0218    0.0123   -0.0134    0.0299    0.0157    0.0409
          51   -0.0414    0.0137    0.0187    0.0183   -0.0201    0.1170    0.0168    0.0724
          52   -0.0014   -0.0006    0.0144    0.0153   -0.0349   -0.1470   -0.0715   -0.0201
          53   -0.0184    0.0124   -0.0086    0.0113   -0.0138    0.1601    0.0360    0.0886
          54   -0.0242    0.0059    0.0067    0.0090   -0.0073    0.0020   -0.0030   -0.0044
          55    0.0128    0.0229    0.0026    0.0441   -0.0238    0.0070   -0.0150    0.0055
          56   -0.0496    0.0831   -0.0047   -0.1607   -0.1203    0.0025    0.0254   -0.0315
          57    0.0448   -0.0294    0.0097    0.1178   -0.0464    0.0176   -0.0456   -0.0128
          58    0.0300   -0.0172    0.0065    0.1753   -0.0368    0.0203   -0.0384   -0.0004
          59   -0.0359   -0.0393   -0.0012    0.1586   -0.0136    0.0127    0.0442   -0.0468
          60    0.0215    0.0017    0.0044   -0.0047    0.0012   -0.0004   -0.0033   -0.0084
          61   -0.0064    0.1013   -0.0026   -0.1534   -0.1329    0.0049   -0.0075   -0.0039
          62   -0.0297    0.0028    0.0007    0.0408   -0.0053    0.0042    0.0172   -0.0205
          63    0.0383    0.0410    0.0090   -0.1148    0.0332   -0.0099   -0.0514    0.0322
          64    0.0300   -0.0602    0.0087   -0.0078   -0.0867   -0.0121    0.0234    0.0375
          65   -0.0093   -0.0729    0.0086   -0.0131   -0.0794   -0.0100    0.0049    0.0366
          66   -0.0127   -0.0061   -0.0030   -0.0043    0.0106   -0.0041    0.0344   -0.0129
          67   -0.0398   -0.0180   -0.0941   -0.0127    0.0100    0.0220   -0.0506   -0.0152
          68    0.0355    0.0033   -0.0872   -0.0058    0.0010    0.0265   -0.0345    0.0074
          69    0.0029   -0.0003   -0.0015   -0.0020    0.0030   -0.0003   -0.0105   -0.0166
          70   -0.0123    0.0589   -0.0038    0.0005    0.1450   -0.0097    0.0176    0.0032
          71   -0.0061    0.0529    0.0058   -0.0016    0.1335   -0.0028   -0.0446    0.0088
          72    0.0238    0.0008    0.0049   -0.0017   -0.0021    0.0001   -0.0037   -0.0093
          73   -0.0455    0.0010    0.0539   -0.0051    0.0075    0.0009   -0.0220   -0.0098
          74    0.0232    0.0206    0.0633    0.0017   -0.0017    0.0047   -0.0040    0.0222
          75    0.0623    0.0209   -0.0049    0.0072   -0.0065    0.0011    0.0223    0.0366
          76   -0.0110    0.0215    0.1123    0.0083   -0.0020   -0.0166    0.0372    0.0151
          77   -0.0033    0.0187    0.1226    0.0051   -0.0008   -0.0138    0.0184   -0.0169
          78    0.0596    0.0197   -0.0064    0.0065   -0.0059    0.0014    0.0196    0.0335


   Root No.       9        10        11        12        13        14        15        16

                 9 A      10 A      11 A      12 A      13 A      14 A      15 A      16 A   

                 279.8     341.1     364.7     417.6     458.1     480.7     565.4     649.7
  
           1   -0.0069    0.0067   -0.0007   -0.0268   -0.0067   -0.0280   -0.0108    0.0009
           2   -0.0116   -0.0111    0.0180    0.0047    0.0090    0.0281    0.0054    0.0272
           3   -0.0121   -0.0052   -0.0215   -0.0117    0.0299    0.0122   -0.0309    0.0075
           4   -0.0059    0.0008   -0.0052   -0.0265   -0.0025   -0.0196   -0.0127   -0.0024
           5   -0.0054    0.0045   -0.0055   -0.0202   -0.0123    0.0194   -0.0037   -0.0075
           6    0.0083    0.0084   -0.0003   -0.0143    0.0308   -0.0176    0.0390    0.0017
           7   -0.0170    0.0142    0.0091    0.0122    0.0107   -0.0133   -0.0073    0.0028
           8   -0.0099   -0.0150    0.0166    0.0067    0.0160    0.0214   -0.0021    0.0077
           9   -0.0252   -0.0340   -0.0119    0.0064   -0.0281    0.0099    0.0134    0.0008
          10   -0.0160    0.0117    0.0135    0.0099    0.0139   -0.0209   -0.0107    0.0190
          11   -0.0063   -0.0005   -0.0019   -0.0264   -0.0143    0.0259   -0.0036   -0.0074
          12   -0.0027   -0.0099    0.0367   -0.0159    0.0020    0.0013   -0.0060    0.0023
          13    0.0304    0.0063    0.0280    0.0061   -0.0092   -0.0090    0.0215    0.0061
          14   -0.0049   -0.0081    0.0079   -0.0018   -0.0281   -0.0075    0.0188    0.0089
          15    0.0129   -0.0047   -0.0157    0.0037    0.0157    0.0068   -0.0202   -0.0088
          16   -0.0119   -0.0196   -0.0014   -0.0218    0.0152    0.0121    0.0134   -0.0006
          17    0.0101    0.0249    0.0061    0.0125   -0.0192   -0.0133   -0.0144    0.0005
          18   -0.0104    0.0275   -0.0012    0.0084   -0.0062   -0.0162   -0.0076    0.0007
          19    0.0104   -0.0360   -0.0119    0.0299    0.0053    0.0154   -0.0109    0.0011
          20   -0.0149    0.0179   -0.0210    0.0272    0.0194   -0.0110    0.0109    0.0011
          21    0.0251   -0.0087    0.0072   -0.0028    0.0089    0.0092    0.0313   -0.0007
          22    0.0095    0.0233   -0.0225    0.0029   -0.0116    0.0212    0.0072   -0.0462
          23    0.0353   -0.0185   -0.0096   -0.0059    0.0173   -0.0189   -0.0095   -0.0460
          24   -0.0185   -0.0377   -0.0102    0.0072   -0.0261   -0.0273    0.0105   -0.0024
          25    0.0136   -0.0335    0.0002    0.0128    0.0001    0.0171   -0.0085    0.0018
          26   -0.0127    0.0268   -0.0096    0.0145    0.0106   -0.0159    0.0096    0.0020
          27    0.0170    0.0120    0.0088    0.0219   -0.0280   -0.0035   -0.0283    0.0005
          28   -0.0095    0.0258   -0.0108    0.0028   -0.0164    0.0242    0.0095    0.0025
          29    0.0154   -0.0236    0.0025   -0.0064    0.0142   -0.0236   -0.0098    0.0037
          30    0.0036    0.0389    0.0021   -0.0011   -0.0029    0.0212    0.0035   -0.0002
          31   -0.0071    0.0142   -0.0075   -0.0509   -0.0031   -0.0482    0.0023   -0.0089
          32   -0.0259   -0.0268    0.0245    0.0222    0.0045    0.0441    0.0140    0.0438
          33   -0.0037   -0.0021   -0.0214   -0.0075    0.0298    0.0138   -0.0404    0.0028
          34   -0.0145    0.0097   -0.0231   -0.0522   -0.0043   -0.0265   -0.0425   -0.0133
          35    0.0043    0.0039   -0.0274   -0.0399   -0.0211    0.0298    0.0009   -0.0261
          36    0.0166    0.0037   -0.0004   -0.0099    0.0269   -0.0096    0.0534   -0.0008
          37   -0.0294    0.0062   -0.0008    0.0358    0.0217   -0.0257   -0.0080    0.0295
          38   -0.0199   -0.0083    0.0176    0.0170    0.0435    0.0431   -0.0166    0.0420
          39   -0.0250   -0.0392   -0.0160    0.0108   -0.0358   -0.0055    0.0196   -0.0038
          40   -0.0041    0.0275    0.0556    0.0030    0.0444   -0.0282   -0.0432    0.0394
          41   -0.0113   -0.0108    0.0215   -0.0424   -0.0413    0.0449   -0.0567   -0.0098
          42    0.0004   -0.0075    0.0694   -0.0278    0.0037    0.0069   -0.0482    0.0121
          43   -0.0313   -0.0040   -0.0173    0.0417    0.0006   -0.0170    0.0197    0.0143
          44    0.0029    0.0115   -0.0384   -0.0336   -0.0030    0.0120    0.0467   -0.0244
          45    0.0008   -0.0077    0.0766   -0.0306    0.0034    0.0074   -0.0550    0.0151
          46    0.0321    0.0073    0.0271    0.0043   -0.0115   -0.0127    0.0216    0.0040
          47    0.0002   -0.0027   -0.0033   -0.0182   -0.0442   -0.0324    0.0111   -0.0068
          48    0.0578   -0.0006    0.0145    0.0371    0.0218    0.0258    0.0196   -0.0066
          49    0.0265    0.0010    0.0410    0.0234    0.0034    0.0141    0.0356    0.0230
          50   -0.0057   -0.0091    0.0095    0.0006   -0.0275   -0.0048    0.0214    0.0108
          51    0.0084   -0.0087   -0.0297   -0.0018   -0.0285   -0.0291   -0.0092   -0.0425
          52    0.0707    0.0120    0.0490    0.0280   -0.0154   -0.0063    0.0562    0.0005
          53   -0.0056   -0.0129    0.0044    0.0033   -0.0622   -0.0281    0.0392   -0.0118
          54   -0.0036   -0.0052   -0.0228   -0.0075    0.0322    0.0140   -0.0425    0.0021
          55   -0.0119   -0.0202   -0.0019   -0.0207    0.0166    0.0125    0.0145   -0.0002
          56    0.0085    0.0297    0.0096   -0.0016   -0.0271   -0.0156   -0.0176   -0.0035
          57   -0.0339    0.0443   -0.0016   -0.0320    0.0084   -0.0259    0.0214   -0.0045
          58   -0.0333   -0.0073   -0.0041   -0.0518    0.0325    0.0057    0.0409   -0.0037
          59    0.0316    0.0209    0.0201    0.0145   -0.0493   -0.0088   -0.0453   -0.0016
          60    0.0066    0.0209    0.0053    0.0207   -0.0244   -0.0118   -0.0299    0.0011
          61   -0.0138   -0.0168    0.0017   -0.0376    0.0103    0.0121    0.0144   -0.0047
          62    0.0102    0.0247    0.0054    0.0153   -0.0183   -0.0136   -0.0146    0.0012
          63   -0.0311    0.0301   -0.0185    0.0173    0.0286   -0.0222    0.0246    0.0053
          64    0.0120   -0.0518   -0.0271    0.0887    0.0106    0.0304   -0.0316    0.0107
          65   -0.0207    0.0119   -0.0412    0.0644    0.0604   -0.0181    0.0388    0.0121
          66    0.0216   -0.0046    0.0054   -0.0109    0.0219    0.0007    0.0484   -0.0001
          67    0.0538    0.0111   -0.0821   -0.0159   -0.0380    0.0233    0.0135    0.0100
          68    0.1004    0.0052   -0.0602   -0.0311    0.0151   -0.0263   -0.0188    0.0110
          69   -0.0266   -0.0493   -0.0121    0.0096   -0.0341   -0.0223    0.0158   -0.0035
          70    0.0288   -0.0383    0.0179   -0.0204   -0.0147    0.0232   -0.0030   -0.0058
          71   -0.0230    0.0462    0.0000   -0.0155   -0.0058   -0.0285    0.0004   -0.0049
          72    0.0069    0.0209    0.0055    0.0225   -0.0273   -0.0106   -0.0325    0.0009
          73    0.0167   -0.0141   -0.0662   -0.0175   -0.0533   -0.0173    0.0142    0.2184
          74    0.0650    0.0251   -0.0392   -0.0375    0.0073    0.0071   -0.0155    0.2315
          75    0.0144    0.0860    0.0108   -0.0058    0.0133    0.0608   -0.0014   -0.0015
          76   -0.0544    0.0673    0.0561    0.0232    0.0144    0.0687    0.0081   -0.1367
          77   -0.0529   -0.0763    0.0566    0.0237    0.0183   -0.0590   -0.0051   -0.1454
          78    0.0142    0.0779    0.0063   -0.0057    0.0080    0.0544    0.0008    0.0065


   Root No.      17        18        19        20        21        22        23        24

                17 A      18 A      19 A      20 A      21 A      22 A      23 A      24 A   

                 748.1     856.4     884.6     910.2     928.1     934.0     941.9     959.1
  
           1   -0.0303   -0.0117    0.0061    0.0143    0.0014   -0.0008   -0.0109    0.0019
           2   -0.0219   -0.0002   -0.0237   -0.0076    0.0027    0.0054   -0.0010   -0.0061
           3   -0.0214   -0.0059   -0.0113    0.0057   -0.0007   -0.0001   -0.0034   -0.0002
           4   -0.0182    0.0115   -0.0112   -0.0187   -0.0054   -0.0031    0.0260   -0.0035
           5    0.0298    0.0043    0.0067   -0.0022   -0.0047    0.0040    0.0017   -0.0049
           6   -0.0090    0.0016   -0.0050   -0.0074    0.0033   -0.0022    0.0077    0.0083
           7    0.0294   -0.0005    0.0036   -0.0019    0.0045   -0.0066   -0.0001    0.0068
           8   -0.0179    0.0019    0.0171    0.0117   -0.0067   -0.0158    0.0035    0.0216
           9   -0.0219    0.0043    0.0206    0.0043   -0.0072    0.0051    0.0089   -0.0041
          10    0.0315    0.0040    0.0176   -0.0098    0.0069    0.0235   -0.0057   -0.0150
          11    0.0326   -0.0094    0.0109   -0.0075    0.0190    0.0081   -0.0118    0.0041
          12   -0.0074    0.0096    0.0177   -0.0215    0.0173    0.0061   -0.0093    0.0030
          13   -0.0162   -0.0084    0.0014    0.0175   -0.0018   -0.0011   -0.0205    0.0025
          14   -0.0146   -0.0028   -0.0208   -0.0050    0.0032    0.0051   -0.0021   -0.0174
          15    0.0148    0.0033    0.0039   -0.0033    0.0040    0.0027   -0.0068   -0.0046
          16    0.0044   -0.0144    0.0033   -0.0078    0.0054    0.0014    0.0022    0.0092
          17   -0.0056   -0.0137    0.0016   -0.0010   -0.0037   -0.0002    0.0041   -0.0101
          18   -0.0067    0.0012   -0.0018   -0.0024    0.0008   -0.0007    0.0026    0.0027
          19   -0.0016    0.0283   -0.0045   -0.0052   -0.0189   -0.0065   -0.0097   -0.0024
          20    0.0034    0.0259   -0.0036   -0.0027   -0.0179   -0.0058   -0.0107    0.0028
          21    0.0217   -0.0063    0.0032    0.0189   -0.0116    0.0003   -0.0040   -0.0109
          22   -0.0029   -0.0021   -0.0042    0.0008    0.0055   -0.0286   -0.0010   -0.0037
          23   -0.0050    0.0004    0.0058   -0.0003    0.0053   -0.0245    0.0012   -0.0081
          24    0.0211   -0.0048   -0.0154    0.0017   -0.0013   -0.0017    0.0015   -0.0016
          25   -0.0026   -0.0165    0.0022   -0.0084   -0.0038   -0.0017   -0.0022    0.0005
          26   -0.0006   -0.0173    0.0023   -0.0027   -0.0072   -0.0019   -0.0024   -0.0003
          27   -0.0060    0.0016   -0.0001   -0.0045    0.0039    0.0006   -0.0006    0.0033
          28    0.0010   -0.0023   -0.0088    0.0012    0.0016   -0.0116   -0.0019    0.0008
          29   -0.0012    0.0015    0.0074   -0.0007    0.0010   -0.0037    0.0019   -0.0071
          30    0.0041   -0.0039   -0.0196   -0.0007    0.0050   -0.0105   -0.0104    0.0138
          31   -0.0437   -0.0151    0.0104    0.0094    0.0044   -0.0088    0.0299    0.0122
          32   -0.0381    0.0092   -0.0133   -0.0067   -0.0151    0.0074    0.0227    0.0241
          33   -0.0060   -0.0076   -0.0169    0.0068    0.0060    0.0024   -0.0323   -0.0184
          34   -0.0458   -0.0034   -0.0290   -0.0196   -0.0224   -0.0241    0.0883    0.0029
          35    0.0538   -0.0192   -0.0060    0.0245   -0.0375   -0.0152    0.0545   -0.0086
          36    0.0138   -0.0019   -0.0016    0.0061   -0.0038   -0.0007    0.0010    0.0033
          37    0.0543    0.0005   -0.0023    0.0290   -0.0382   -0.0192    0.0412    0.0305
          38   -0.0353    0.0046    0.0007    0.0341   -0.0358   -0.0454    0.0254    0.0805
          39   -0.0028    0.0030    0.0236    0.0068   -0.0118    0.0132    0.0167   -0.0213
          40    0.0851   -0.0204   -0.0423    0.0358   -0.0369    0.0053    0.0143    0.0146
          41    0.0706   -0.0411   -0.0140    0.0565   -0.0301   -0.0062    0.0305   -0.0347
          42    0.0370   -0.0185   -0.0246    0.0329   -0.0288   -0.0102    0.0211   -0.0018
          43   -0.0126    0.0330    0.1093   -0.0315    0.0302    0.0549   -0.0347   -0.0462
          44    0.0068    0.0161    0.0082   -0.0917    0.0859    0.0147   -0.0357    0.0454
          45    0.0367   -0.0232   -0.0356    0.0427   -0.0379   -0.0172    0.0241   -0.0026
          46   -0.0171   -0.0100    0.0098    0.0248   -0.0041   -0.0033   -0.0244    0.0099
          47   -0.0245   -0.0169    0.0405    0.0546   -0.0131   -0.0090   -0.0457    0.0317
          48    0.0651    0.0381   -0.0178   -0.0884    0.0076    0.0038    0.1134   -0.0074
          49   -0.0096    0.0047   -0.0609   -0.0405    0.0123    0.0121    0.0278   -0.0435
          50   -0.0134   -0.0009   -0.0277   -0.0124    0.0045    0.0066    0.0055   -0.0221
          51    0.0463    0.0092    0.1127    0.0342   -0.0242   -0.0241    0.0189    0.0898
          52    0.0215    0.0148    0.0085   -0.0298   -0.0079   -0.0082    0.0718    0.0239
          53    0.0143    0.0078    0.0459    0.0044   -0.0183   -0.0144    0.0453    0.0499
          54   -0.0128   -0.0106   -0.0263    0.0123    0.0155    0.0139   -0.0645   -0.0412
          55    0.0045   -0.0243    0.0052   -0.0103    0.0056    0.0018    0.0036    0.0088
          56   -0.0024    0.0823   -0.0149    0.0264   -0.0077   -0.0034   -0.0105   -0.0106
          57    0.0088    0.0973   -0.0170    0.0582   -0.0319   -0.0057   -0.0157   -0.0550
          58    0.0182    0.0332   -0.0028    0.0335   -0.0195   -0.0012   -0.0101   -0.0374
          59   -0.0142    0.0417   -0.0093   -0.0144    0.0206   -0.0001    0.0013    0.0404
          60   -0.0152    0.0040   -0.0037   -0.0233    0.0196    0.0003    0.0065    0.0399
          61    0.0111    0.0786   -0.0116    0.0197    0.0024   -0.0011   -0.0141    0.0114
          62   -0.0069   -0.0290    0.0040   -0.0054   -0.0035    0.0002    0.0069   -0.0112
          63   -0.0022   -0.1069    0.0168   -0.0006   -0.0268   -0.0004    0.0159   -0.0577
          64   -0.0115   -0.0654    0.0025    0.0728    0.1354    0.0459    0.0538   -0.0124
          65   -0.0077   -0.0669   -0.0074    0.0783    0.1219    0.0392    0.0692    0.0072
          66    0.0209   -0.0056   -0.0010    0.0196   -0.0176   -0.0026    0.0018   -0.0059
          67   -0.0151   -0.0065   -0.0184    0.0180   -0.0594    0.2046    0.0147    0.0294
          68    0.0045   -0.0075   -0.0436   -0.0032   -0.0320    0.1986   -0.0173    0.0494
          69    0.0123   -0.0033   -0.0012    0.0090   -0.0108   -0.0018    0.0142   -0.0115
          70    0.0150    0.1244   -0.0224    0.0988    0.0809    0.0287    0.0258   -0.0224
          71   -0.0021    0.1243   -0.0260    0.0726    0.0966    0.0272    0.0330    0.0228
          72   -0.0129    0.0011   -0.0013   -0.0161    0.0099   -0.0001    0.0019    0.0193
          73    0.0566   -0.0092   -0.0576   -0.0053    0.0188   -0.0357   -0.0333    0.0591
          74   -0.0168    0.0219    0.0927    0.0023   -0.0167    0.0351    0.0349   -0.0253
          75   -0.0348    0.0103    0.0508    0.0047   -0.0139    0.0225    0.0241   -0.0274
          76   -0.0469    0.0069    0.0368    0.0097   -0.0482    0.1643    0.0307   -0.0049
          77    0.0222   -0.0153   -0.0767   -0.0049   -0.0109    0.1142   -0.0331    0.0653
          78   -0.0259    0.0071    0.0355    0.0046   -0.0104    0.0114    0.0180   -0.0195


   Root No.      25        26        27        28        29        30        31        32

                25 A      26 A      27 A      28 A      29 A      30 A      31 A      32 A   

                 977.1    1003.1    1027.7    1029.2    1047.5    1062.0    1069.4    1138.7
  
           1    0.0001   -0.0012    0.0065   -0.0017    0.0058   -0.0177   -0.0203    0.0023
           2    0.0004    0.0012   -0.0035   -0.0069   -0.0043    0.0201   -0.0183    0.0029
           3   -0.0001    0.0017    0.0015   -0.0049   -0.0010   -0.0005   -0.0093    0.0509
           4    0.0077    0.0026   -0.0040    0.0015    0.0086    0.0256    0.0058   -0.0286
           5   -0.0011    0.0155   -0.0123   -0.0003   -0.0346    0.0000    0.0157   -0.0010
           6   -0.0055   -0.0040    0.0025   -0.0007    0.0065    0.0009   -0.0051   -0.0036
           7    0.0017   -0.0128    0.0083    0.0101    0.0304   -0.0039    0.0200   -0.0019
           8    0.0079   -0.0007    0.0019    0.0050   -0.0081   -0.0248   -0.0003   -0.0340
           9   -0.0032    0.0014   -0.0008   -0.0023   -0.0039    0.0010   -0.0056   -0.0037
          10   -0.0029    0.0123   -0.0048   -0.0116   -0.0193    0.0121   -0.0171    0.0078
          11   -0.0001   -0.0181    0.0108   -0.0035    0.0245   -0.0080   -0.0158    0.0073
          12    0.0122    0.0024   -0.0010    0.0009   -0.0030   -0.0029    0.0281    0.0049
          13   -0.0059   -0.0022   -0.0055    0.0016   -0.0022    0.0118    0.0119    0.0027
          14   -0.0077    0.0006    0.0028    0.0058    0.0012   -0.0134    0.0105    0.0026
          15   -0.0007   -0.0021   -0.0012    0.0041    0.0012    0.0008    0.0004   -0.0419
          16   -0.0156    0.0100   -0.0237    0.0103    0.0030   -0.0034   -0.0014    0.0049
          17    0.0195   -0.0076   -0.0217    0.0089    0.0061   -0.0012   -0.0030   -0.0041
          18   -0.0043    0.0017    0.0014    0.0004    0.0065    0.0042   -0.0017   -0.0059
          19    0.0045   -0.0047   -0.0132    0.0061    0.0078   -0.0033   -0.0066   -0.0014
          20   -0.0094    0.0051   -0.0136    0.0064    0.0041   -0.0057   -0.0047    0.0136
          21    0.0018    0.0102   -0.0004    0.0014    0.0024    0.0025    0.0020    0.0080
          22   -0.0010    0.0005    0.0061    0.0198   -0.0067    0.0054   -0.0063    0.0072
          23   -0.0035   -0.0012    0.0066    0.0204   -0.0051    0.0061   -0.0054    0.0066
          24   -0.0076   -0.0142   -0.0009    0.0021   -0.0023   -0.0027    0.0017    0.0056
          25    0.0011   -0.0044    0.0321   -0.0140   -0.0070    0.0052    0.0044   -0.0066
          26   -0.0038    0.0020    0.0303   -0.0128   -0.0084    0.0039    0.0051    0.0018
          27   -0.0020   -0.0010   -0.0012   -0.0004   -0.0051   -0.0039    0.0013    0.0102
          28    0.0001    0.0017   -0.0119   -0.0338    0.0046   -0.0059    0.0034   -0.0044
          29   -0.0045   -0.0013   -0.0113   -0.0341    0.0082   -0.0043    0.0057   -0.0015
          30    0.0137    0.0157   -0.0005   -0.0017   -0.0060   -0.0026   -0.0043   -0.0072
          31    0.0056    0.0194    0.0260   -0.0096   -0.0555   -0.1632   -0.0802   -0.0540
          32    0.0198   -0.0129   -0.0121   -0.0308    0.0583    0.1695   -0.0438   -0.0344
          33   -0.0112   -0.0014   -0.0038    0.0103   -0.0015   -0.0021    0.0310    0.0939
          34    0.0235    0.0250    0.0067    0.0034   -0.0426    0.0448    0.0864    0.0589
          35   -0.0126    0.0617   -0.0075    0.0116   -0.0837    0.0368    0.1114   -0.0198
          36   -0.0180    0.0071   -0.0004    0.0036    0.0091    0.0072   -0.0019   -0.0515
          37   -0.0206   -0.0641   -0.0017    0.0148    0.0708   -0.0551    0.1239    0.0336
          38    0.0352    0.0070   -0.0084   -0.0087    0.0187   -0.0652    0.0775    0.0332
          39   -0.0259   -0.0260   -0.0003    0.0062    0.0009   -0.0015    0.0023   -0.0189
          40   -0.0418   -0.0726   -0.0424   -0.0278   -0.1546    0.0079   -0.0649   -0.0088
          41   -0.0170    0.0554    0.0520    0.0110    0.1710    0.0054   -0.0442    0.0066
          42   -0.0156   -0.0034    0.0008   -0.0003    0.0023    0.0017   -0.0103   -0.0030
          43    0.0307    0.1435    0.0157   -0.0049    0.0194   -0.0307    0.0221    0.0135
          44    0.0169   -0.1401   -0.0122   -0.0099   -0.0235    0.0261    0.0291    0.0184
          45   -0.0186   -0.0033    0.0004    0.0011    0.0024    0.0021   -0.0194   -0.0054
          46   -0.0047   -0.0026   -0.0078   -0.0008   -0.0034    0.0192    0.0107    0.0095
          47   -0.0028   -0.0042   -0.0188   -0.0075   -0.0085    0.0541    0.0133    0.0293
          48    0.0265    0.0107    0.0306   -0.0112    0.0125   -0.0662   -0.0642   -0.0082
          49   -0.0108    0.0041    0.0173    0.0110    0.0065   -0.0564    0.0069    0.0280
          50   -0.0077    0.0017    0.0057    0.0060    0.0022   -0.0206    0.0085    0.0093
          51    0.0365   -0.0011   -0.0142   -0.0339   -0.0079    0.0737   -0.0562   -0.0060
          52    0.0207    0.0088    0.0151   -0.0191    0.0004   -0.0249   -0.0397    0.0862
          53    0.0239    0.0057    0.0004   -0.0266   -0.0027    0.0260   -0.0361    0.0867
          54   -0.0248   -0.0088   -0.0086    0.0258    0.0019    0.0000    0.0393   -0.1139
          55   -0.0146    0.0110   -0.0354    0.0151    0.0044   -0.0052   -0.0022    0.0076
          56    0.0157   -0.0169    0.0839   -0.0354   -0.0109    0.0119    0.0055   -0.0165
          57    0.0857   -0.0487    0.1078   -0.0474   -0.0156    0.0145    0.0072   -0.0234
          58    0.0585   -0.0275    0.0275   -0.0147   -0.0178   -0.0052    0.0053    0.0122
          59   -0.0668    0.0255    0.0289   -0.0088    0.0079    0.0112   -0.0005   -0.0140
          60   -0.0660    0.0290    0.0012    0.0034    0.0161    0.0104   -0.0035   -0.0139
          61   -0.0259    0.0056    0.0783   -0.0330   -0.0203    0.0047    0.0094    0.0124
          62    0.0226   -0.0075   -0.0391    0.0163    0.0105   -0.0024   -0.0050   -0.0068
          63    0.1020   -0.0353   -0.1049    0.0425    0.0257   -0.0071   -0.0125   -0.0189
          64    0.0436   -0.0218    0.0304   -0.0242   -0.0646   -0.0084    0.0250    0.0239
          65   -0.0257    0.0276    0.0390   -0.0119    0.0202    0.0495    0.0138   -0.0460
          66   -0.0177    0.0242    0.0028    0.0059    0.0353    0.0247   -0.0028   -0.0222
          67   -0.0116   -0.0316   -0.0205   -0.0515   -0.0089   -0.0470    0.0087   -0.0435
          68    0.0356    0.0297   -0.0102   -0.0592    0.0528   -0.0028    0.0307    0.0180
          69   -0.0262   -0.0373   -0.0041    0.0065   -0.0253   -0.0183   -0.0065   -0.0161
          70    0.0435   -0.0141   -0.0754    0.0294    0.0148   -0.0114   -0.0102    0.0321
          71   -0.0347    0.0202   -0.0728    0.0325    0.0184   -0.0069   -0.0109   -0.0178
          72   -0.0277    0.0086    0.0010    0.0000   -0.0029   -0.0016    0.0008   -0.0105
          73    0.0526    0.0420    0.0459    0.1319   -0.0336    0.0096   -0.0217   -0.0153
          74   -0.0290   -0.0452    0.0502    0.1464   -0.0111    0.0207   -0.0043    0.0216
          75   -0.0281   -0.0297   -0.0008    0.0003    0.0041    0.0011    0.0040    0.0097
          76   -0.0262   -0.0469    0.0400    0.1203   -0.0140    0.0133   -0.0066    0.0174
          77    0.0541    0.0467    0.0405    0.1082   -0.0237    0.0129   -0.0188    0.0014
          78   -0.0220   -0.0245   -0.0014    0.0005   -0.0003   -0.0021    0.0019    0.0007


   Root No.      33        34        35        36        37        38        39        40

                33 A      34 A      35 A      36 A      37 A      38 A      39 A      40 A   

                1144.4    1152.1    1170.2    1187.5    1199.9    1209.3    1213.1    1217.4
  
           1    0.0240    0.0066   -0.0077   -0.0196   -0.0174   -0.0266   -0.0008    0.0169
           2   -0.0248    0.0066   -0.0002    0.0216    0.0184    0.0096    0.0236    0.0176
           3    0.0028    0.0033    0.0033   -0.0045    0.0080   -0.0053    0.0064    0.0158
           4   -0.0339   -0.0131    0.0124   -0.0005   -0.0163    0.0063    0.0103   -0.0096
           5   -0.0336    0.0023   -0.0121   -0.0042   -0.0179   -0.0157    0.0207    0.0069
           6   -0.0021    0.0095    0.0123    0.0160    0.0100    0.0210   -0.0162   -0.0196
           7    0.0321    0.0087   -0.0037    0.0143   -0.0016   -0.0107    0.0308    0.0022
           8    0.0310   -0.0153    0.0074    0.0061   -0.0128    0.0175    0.0162   -0.0085
           9    0.0019    0.0010   -0.0052   -0.0258   -0.0049    0.0259   -0.0116   -0.0170
          10   -0.0149   -0.0064    0.0085   -0.0069    0.0113    0.0054   -0.0174   -0.0142
          11    0.0172   -0.0063    0.0042   -0.0008    0.0029    0.0134   -0.0245   -0.0056
          12    0.0005    0.0023   -0.0026   -0.0004    0.0052   -0.0100    0.0033    0.0164
          13   -0.0074    0.0007    0.0023    0.0069    0.0078    0.0075   -0.0019   -0.0049
          14    0.0079   -0.0002   -0.0019   -0.0089   -0.0044   -0.0019   -0.0088   -0.0045
          15   -0.0029    0.0080   -0.0119    0.0043   -0.0012   -0.0060   -0.0068   -0.0051
[...]
 EFF. MASS   1.6551

 VIBRATION   52   52A       ATOM PAIR        ENERGY CONTRIBUTION    RADIAL
 FREQ.      1416.62        C  4 --  H 14          +25.0% ( 55.6%)     3.9%
 T-DIPOLE    0.0265        C  4 --  H 15          +24.2% ( 54.8%)     3.8%
 TRAVEL      0.1258        C  5 --  H 18           +7.0% ( 29.6%)     5.3%
 RED. MASS   0.4105        C  1 --  C  5           +7.0% ( 29.4%)    99.6%
 EFF. MASS   3.0079

 VIBRATION   53   53A       ATOM PAIR        ENERGY CONTRIBUTION    RADIAL
 FREQ.      1431.20        C  6 --  C  9          +13.9% ( 52.1%)    99.4%
 T-DIPOLE    0.0470        C  6 --  H 20          +13.8% ( 52.0%)     5.4%
 TRAVEL      0.0847        C  6 --  H 19          +11.2% ( 46.7%)     2.9%
 RED. MASS   0.8536        C  6 --  H 21          +11.1% ( 46.7%)     2.9%
 EFF. MASS   6.5699

 VIBRATION   54   54A       ATOM PAIR        ENERGY CONTRIBUTION    RADIAL
 FREQ.      1475.02        C  1 --  C  2           +9.9% ( 53.1%)    51.9%
 T-DIPOLE    0.0924        C  2 --  C  3           +9.6% ( 52.4%)    99.5%
 TRAVEL      0.0682        C  1 --  C  3           +8.0% ( 47.9%)    51.3%
 RED. MASS   1.3960        C  2 --  C  7           +7.8% ( 47.2%)    94.7%
 EFF. MASS   9.8399

 VIBRATION   55   55A       ATOM PAIR        ENERGY CONTRIBUTION    RADIAL
 FREQ.      1863.91        C  8 --  C 10          +44.8% ( 99.0%)    98.8%
 T-DIPOLE    0.1435        C  3 --  C  8          +17.0% ( 61.0%)    55.9%
 TRAVEL      0.0554        C  8 --  H 23          +15.5% ( 58.2%)     3.8%
 RED. MASS   5.2780        C 10 --  H 26          +10.7% ( 48.4%)    11.1%
 EFF. MASS  11.7913        C 10 --  H 25          +10.5% ( 48.0%)    12.9%

 VIBRATION   56   56A       ATOM PAIR        ENERGY CONTRIBUTION    RADIAL
 FREQ.      1891.02        C  7 --  C  9          +43.5% ( 97.4%)    96.3%
 T-DIPOLE    0.3117        C  2 --  C  7          +14.4% ( 56.1%)    55.9%
 TRAVEL      0.0550        C  6 --  C  9          +14.1% ( 55.4%)    56.4%
 RED. MASS   5.3436        C  7 --  H 22          +13.4% ( 53.9%)     3.5%
 EFF. MASS  11.7894        C  9 --  H 24          +13.0% ( 53.3%)     3.4%

 VIBRATION   57   57A       ATOM PAIR        ENERGY CONTRIBUTION    RADIAL
 FREQ.      2938.13        C  2 --  H 12          +58.8% ( 78.6%)   100.0%
 T-DIPOLE    0.0547        C  1 --  H 11          +23.2% ( 49.3%)   100.0%
 TRAVEL      0.1251        C  3 --  H 13          +12.9% ( 36.8%)   100.0%
 RED. MASS   0.4255        C  1 --  C  2           +1.0% ( 10.4%)    17.0%
 EFF. MASS   1.4665

 VIBRATION   58   58A       ATOM PAIR        ENERGY CONTRIBUTION    RADIAL
 FREQ.      2939.78        C  3 --  H 13          +67.9% ( 84.2%)   100.0%
 T-DIPOLE    0.0774        C  2 --  H 12          +24.6% ( 50.7%)   100.0%
 TRAVEL      0.1262        C  1 --  H 11           +3.1% ( 17.9%)    99.8%
 RED. MASS   0.5297        C  2 --  C  3           +1.0% ( 10.1%)     2.5%
 EFF. MASS   1.4410

 VIBRATION   59   59A       ATOM PAIR        ENERGY CONTRIBUTION    RADIAL
 FREQ.      2948.96        C  1 --  H 11          +69.4% ( 85.0%)   100.0%
 T-DIPOLE    0.1431        C  3 --  H 13          +14.4% ( 38.8%)   100.0%
 TRAVEL      0.1259        C  2 --  H 12          +11.5% ( 34.6%)    99.9%
 RED. MASS   0.5220        C  1 --  C  3           +0.8% (  9.3%)     7.2%
 EFF. MASS   1.4426

 VIBRATION   60   60A       ATOM PAIR        ENERGY CONTRIBUTION    RADIAL
 FREQ.      3030.78        C  7 --  H 22          +92.6% ( 97.5%)   100.0%
 T-DIPOLE    0.2555        C  8 --  H 23           +3.9% ( 20.1%)   100.0%
 TRAVEL      0.1216        C  7 --  C  9           +1.4% ( 11.8%)    40.1%
 RED. MASS   0.8439        C  2 --  C  7           +1.3% ( 11.5%)    15.0%
 EFF. MASS   1.5040

 VIBRATION   61   61A       ATOM PAIR        ENERGY CONTRIBUTION    RADIAL
 FREQ.      3035.31        C  8 --  H 23          +91.9% ( 97.2%)   100.0%
 T-DIPOLE    0.2417        C  7 --  H 22           +3.9% ( 19.9%)   100.0%
 TRAVEL      0.1216        C  8 --  C 10           +1.4% ( 11.9%)    31.4%
 RED. MASS   0.8333        C  3 --  C  8           +1.3% ( 11.5%)    14.5%
 EFF. MASS   1.5033

 VIBRATION   62   62A       ATOM PAIR        ENERGY CONTRIBUTION    RADIAL
 FREQ.      3037.43        C  4 --  H 14          +49.3% ( 72.8%)    97.9%
 T-DIPOLE    0.1640        C  4 --  H 15          +32.2% ( 58.8%)    95.4%
 TRAVEL      0.1202        C  9 --  H 24          +14.0% ( 38.9%)   100.0%
 RED. MASS   0.3989        C  1 --  C  4           +1.0% ( 10.2%)     0.4%
 EFF. MASS   1.5375

 VIBRATION   63   63A       ATOM PAIR        ENERGY CONTRIBUTION    RADIAL
 FREQ.      3038.10        C  9 --  H 24          +78.8% ( 90.6%)   100.0%
 T-DIPOLE    0.1903        C  4 --  H 14           +9.4% ( 31.2%)    97.9%
 TRAVEL      0.1204        C  4 --  H 15           +6.1% ( 25.3%)    95.4%
 RED. MASS   0.6387        C  7 --  C  9           +1.3% ( 11.7%)    39.4%
 EFF. MASS   1.5308

 VIBRATION   64   64A       ATOM PAIR        ENERGY CONTRIBUTION    RADIAL
 FREQ.      3070.05        C  6 --  H 19          +49.2% ( 72.4%)    97.1%
 T-DIPOLE    0.0244        C  6 --  H 21          +48.9% ( 72.1%)    97.0%
 TRAVEL      0.1210        C  6 --  C  9           +1.0% ( 10.2%)     0.0%
 RED. MASS   0.5093        C  6 --  H 20           +0.9% (  9.9%)     0.0%
 EFF. MASS   1.5010

 VIBRATION   65   65A       ATOM PAIR        ENERGY CONTRIBUTION    RADIAL
 FREQ.      3075.81        C  6 --  H 20          +62.7% ( 81.6%)    98.9%
 T-DIPOLE    0.0616        C  6 --  H 21          +17.3% ( 42.9%)    85.1%
 TRAVEL      0.1206        C  6 --  H 19          +16.9% ( 42.4%)    84.7%
 RED. MASS   0.4794        C  9 --  H 24           +2.0% ( 14.4%)   100.0%
 EFF. MASS   1.5085

 VIBRATION   66   66A       ATOM PAIR        ENERGY CONTRIBUTION    RADIAL
 FREQ.      3076.12        C  5 --  H 18          +67.9% ( 85.0%)    99.0%
 T-DIPOLE    0.0103        C  5 --  H 17          +15.6% ( 40.7%)    83.4%
 TRAVEL      0.1207        C  5 --  H 16          +15.3% ( 40.4%)    83.1%
 RED. MASS   0.5374        C  1 --  C  5           +1.0% ( 10.3%)     0.0%
 EFF. MASS   1.5041

 VIBRATION   67   67A       ATOM PAIR        ENERGY CONTRIBUTION    RADIAL
 FREQ.      3084.37        C  5 --  H 16          +49.1% ( 72.3%)    97.1%
 T-DIPOLE    0.0274        C  5 --  H 17          +48.9% ( 72.1%)    97.0%
 TRAVEL      0.1204        C  1 --  C  5           +1.0% ( 10.4%)     0.0%
 RED. MASS   0.5101        C  5 --  H 18           +1.0% ( 10.1%)     0.0%
 EFF. MASS   1.5079

 VIBRATION   68   68A       ATOM PAIR        ENERGY CONTRIBUTION    RADIAL
 FREQ.      3102.96        C  4 --  H 15          +60.0% ( 76.9%)    98.3%
 T-DIPOLE    0.0814        C  4 --  H 14          +37.9% ( 61.1%)    95.2%
 TRAVEL      0.1300        C  1 --  C  4           +0.7% (  8.3%)    98.2%
 RED. MASS   0.5050        C  3 --  C  4           +0.7% (  8.2%)    48.2%
 EFF. MASS   1.2849

 VIBRATION   69   69A       ATOM PAIR        ENERGY CONTRIBUTION    RADIAL
 FREQ.      3134.84        C 10 --  H 26          +91.1% ( 97.2%)    99.8%
 T-DIPOLE    0.1981        C 10 --  H 25           +7.6% ( 28.0%)    73.6%
 TRAVEL      0.1181        C  8 --  C 10           +1.3% ( 11.7%)    20.9%
 RED. MASS   0.8429
 EFF. MASS   1.5416

 VIBRATION   70   70A       ATOM PAIR        ENERGY CONTRIBUTION    RADIAL
 FREQ.      3146.87        C 10 --  H 25          +91.2% ( 96.1%)    99.6%
 T-DIPOLE    0.2618        C 10 --  H 26           +6.5% ( 25.7%)    46.4%
 TRAVEL      0.1211        C  8 --  C 10           +1.6% ( 12.7%)    74.3%
 RED. MASS   0.8082        C  8 --  H 23           +0.7% (  8.4%)    94.1%
 EFF. MASS   1.4622

 VIBRATION   71   71A       ATOM PAIR        ENERGY CONTRIBUTION    RADIAL
 FREQ.      3169.72        C  6 --  H 20          +34.4% ( 56.5%)    97.2%
 T-DIPOLE    0.0751        C  6 --  H 21          +32.6% ( 55.0%)    97.0%
 TRAVEL      0.1366        C  6 --  H 19          +32.6% ( 55.0%)    97.0%
 RED. MASS   0.3272        C  6 --  C  9           +0.3% (  5.4%)   100.0%
 EFF. MASS   1.1396

 VIBRATION   72   72A       ATOM PAIR        ENERGY CONTRIBUTION    RADIAL
 FREQ.      3177.43        C  5 --  H 16          +35.0% ( 56.9%)    97.4%
 T-DIPOLE    0.0378        C  5 --  H 17          +35.0% ( 56.9%)    97.4%
 TRAVEL      0.1366        C  5 --  H 18          +29.8% ( 52.5%)    96.5%
 RED. MASS   0.3285        C  1 --  C  5           +0.3% (  5.2%)    99.4%
 EFF. MASS   1.1371

 SYMMETRY NUMBER FOR POINT-GROUP C1  =  1


          SYSTEM IS A GROUND STATE


    NULL



          MOLECULE IS NOT LINEAR

          THERE ARE 72 GENUINE VIBRATIONS IN THIS SYSTEM
          THIS THERMODYNAMICS CALCULATION IS LIMITED TO
          MOLECULES WHICH HAVE NO INTERNAL ROTATIONS




                    CALCULATED THERMODYNAMIC PROPERTIES
                                          *
   TEMP. (K)   PARTITION FUNCTION   H.O.F.    ENTHALPY  HEAT CAPACITY ENTROPY
                                   KCAL/MOL   CAL/MOLE    CAL/K/MOL  CAL/K/MOL


 298.00  VIB.     0.3290D+04                  5373.5647    36.3659    34.1255
         ROT.     0.9306D+06                   888.2813     2.9808    30.2922
         INT.     0.3061D+10                  6261.8461    39.3467    64.4177
         TRA.     0.1537D+28                  1480.4688     4.9680    40.6375
         TOT.                       16.448    7742.3149    44.3147   105.0552

 200.00  VIB.     0.1652D+03                  2445.2549    23.8347    22.3755
         ROT.     0.5117D+06                   596.1620     2.9808    29.1035
         INT.     0.8454D+08                  3041.4169    26.8155    51.4790
         TRA.     0.8452D+27                   993.6033     4.9680    38.6564
         TOT.                       12.741    4035.0201    31.7835    90.1353

 210.00  VIB.     0.2246D+03                  2689.3128    24.9821    23.5660
         ROT.     0.5505D+06                   625.9700     2.9808    29.2489
         INT.     0.1237D+09                  3315.2828    27.9629    52.8149
         TRA.     0.9094D+27                  1043.2834     4.9680    38.8988
         TOT.                       13.064    4358.5662    32.9309    91.7137

 220.00  VIB.     0.3052D+03                  2945.0048    26.1618    24.7553
         ROT.     0.5903D+06                   655.7781     2.9808    29.3876
         INT.     0.1802D+09                  3600.7830    29.1426    54.1429
         TRA.     0.9752D+27                  1092.9636     4.9680    39.1299
         TOT.                       13.399    4693.7466    34.1106    93.2727

 230.00  VIB.     0.4144D+03                  3212.6595    27.3746    25.9448
         ROT.     0.6310D+06                   685.5862     2.9808    29.5201
         INT.     0.2615D+09                  3898.2457    30.3554    55.4649
         TRA.     0.1042D+28                  1142.6437     4.9680    39.3507
         TOT.                       13.747    5040.8894    35.3235    94.8156

 240.00  VIB.     0.5624D+03                  3492.6066    28.6201    27.1361
         ROT.     0.6726D+06                   715.3943     2.9808    29.6470
         INT.     0.3783D+09                  4208.0009    31.6009    56.7831
         TRA.     0.1111D+28                  1192.3239     4.9680    39.5621
         TOT.                       14.106    5400.3248    36.5689    96.3452

 250.00  VIB.     0.7630D+03                  3785.1657    29.8967    28.3302
         ROT.     0.7151D+06                   745.2024     2.9808    29.7686
         INT.     0.5456D+09                  4530.3681    32.8775    58.0988
         TRA.     0.1181D+28                  1242.0041     4.9680    39.7650
         TOT.                       14.478    5772.3722    37.8455    97.8638

 260.00  VIB.     0.1035D+04                  4090.6364    31.2020    29.5281
         ROT.     0.7584D+06                   775.0105     2.9808    29.8856
         INT.     0.7847D+09                  4865.6470    34.1828    59.4137
         TRA.     0.1253D+28                  1291.6842     4.9680    39.9598
         TOT.                       14.863    6157.3312    39.1508    99.3735

 270.00  VIB.     0.1403D+04                  4409.2912    32.5330    30.7306
         ROT.     0.8026D+06                   804.8186     2.9808    29.9980
         INT.     0.1126D+10                  5214.1098    35.5138    60.7286
         TRA.     0.1326D+28                  1341.3644     4.9680    40.1473
         TOT.                       15.261    6555.4742    40.4818   100.8759

 280.00  VIB.     0.1902D+04                  4741.3697    33.8861    31.9381
         ROT.     0.8476D+06                   834.6267     2.9808    30.1065
         INT.     0.1612D+10                  5575.9965    36.8670    62.0446
         TRA.     0.1400D+28                  1391.0445     4.9680    40.3280
         TOT.                       15.673    6967.0410    41.8350   102.3725

 290.00  VIB.     0.2579D+04                  5087.0757    35.2578    33.1511
         ROT.     0.8934D+06                   864.4348     2.9808    30.2111
         INT.     0.2304D+10                  5951.5105    38.2386    63.3622
         TRA.     0.1476D+28                  1440.7247     4.9680    40.5023
         TOT.                       16.098    7392.2352    43.2066   103.8645

 300.00  VIB.     0.3496D+04                  5446.5746    36.6441    34.3697
         ROT.     0.9400D+06                   894.2429     2.9808    30.3121
         INT.     0.3286D+10                  6340.8176    39.6249    64.6818
         TRA.     0.1553D+28                  1490.4049     4.9680    40.6707
         TOT.                       16.537    7831.2224    44.5929   105.3526

 310.00  VIB.     0.4741D+04                  5819.9936    38.0412    35.5940
         ROT.     0.9874D+06                   924.0510     2.9808    30.4098
         INT.     0.4682D+10                  6744.0446    41.0220    66.0039
         TRA.     0.1631D+28                  1540.0850     4.9680    40.8336
         TOT.                       16.990    8284.1296    45.9900   106.8375

 320.00  VIB.     0.6432D+04                  6207.4212    39.4452    36.8239
         ROT.     0.1036D+07                   953.8591     2.9808    30.5045
         INT.     0.6660D+10                  7161.2804    42.4260    67.3284
         TRA.     0.1711D+28                  1589.7652     4.9680    40.9914
         TOT.                       17.457    8751.0456    47.3941   108.3198

 330.00  VIB.     0.8727D+04                  6608.9095    40.8527    38.0593
         ROT.     0.1084D+07                   983.6672     2.9808    30.5962
         INT.     0.9464D+10                  7592.5768    43.8335    68.6555
         TRA.     0.1791D+28                  1639.4454     4.9680    41.1442
         TOT.                       17.938    9232.0221    48.8015   109.7997

 340.00  VIB.     0.1185D+05                  7024.4754    42.2602    39.2998
         ROT.     0.1134D+07                  1013.4753     2.9808    30.6852
         INT.     0.1344D+11                  8037.9507    45.2410    69.9850
         TRA.     0.1874D+28                  1689.1255     4.9680    41.2926
         TOT.                       18.433    9727.0762    50.2090   111.2775

 350.00  VIB.     0.1609D+05                  7454.1028    43.6645    40.5451
         ROT.     0.1185D+07                  1043.2834     2.9808    30.7716
         INT.     0.1906D+11                  8497.3862    46.6453    71.3167
         TRA.     0.1957D+28                  1738.8057     4.9680    41.4366
         TOT.                       18.942   10236.1919    51.6134   112.7532

 360.00  VIB.     0.2186D+05                  7897.7461    45.0629    41.7947
         ROT.     0.1236D+07                  1073.0915     2.9808    30.8556
         INT.     0.2701D+11                  8970.8376    48.0437    72.6503
         TRA.     0.2041D+28                  1788.4859     4.9680    41.5765
         TOT.                       19.465   10759.3235    53.0117   114.2268

 370.00  VIB.     0.2971D+05                  8355.3321    46.4527    43.0484
         ROT.     0.1287D+07                  1102.8996     2.9808    30.9372
         INT.     0.3825D+11                  9458.2317    49.4335    73.9856
         TRA.     0.2127D+28                  1838.1660     4.9680    41.7126
         TOT.                       20.002   11296.3977    54.4015   115.6983

 380.00  VIB.     0.4039D+05                  8826.7632    47.8316    44.3055
         ROT.     0.1340D+07                  1132.7077     2.9808    31.0167
         INT.     0.5413D+11                  9959.4709    50.8124    75.3223
         TRA.     0.2214D+28                  1887.8462     4.9680    41.8451
         TOT.                       20.553   11847.3171    55.7804   117.1674

 390.00  VIB.     0.5496D+05                  9311.9204    49.1976    45.5657
         ROT.     0.1393D+07                  1162.5158     2.9808    31.0942
         INT.     0.7657D+11                 10474.4362    52.1784    76.6598
         TRA.     0.2302D+28                  1937.5263     4.9680    41.9742
         TOT.                       21.118   12411.9626    57.1464   118.6340

 400.00  VIB.     0.7480D+05                  9810.6658    50.5489    46.8283
         ROT.     0.1447D+07                  1192.3239     2.9808    31.1696
         INT.     0.1083D+12                 11002.9897    53.5297    77.9980
         TRA.     0.2391D+28                  1987.2065     4.9680    42.1000
         TOT.                       21.696   12990.1962    58.4978   120.0979

   *: NOTE: HEATS OF FORMATION ARE RELATIVE TO THE
            ELEMENTS IN THEIR STANDARD STATE AT 298K
              (=  Standard Enthalpy of Formation).

            Hvib:  Zero-point energy is not included.
                   frequencies of less than zero cm-1 are not included.
            Hrot = (3/2)RT
            Htra = (3/2)RT + pV = (5/2)RT

            Heat capacity is Cp, not Cv

           For more information, see: HTTP://OpenMOPAC.net/Manual/thermochemistry.html


           FORCE CONSTANT IN CARTESIAN COORDINATES (Millidynes/A)

    ATOM   CHEMICAL       X               Y               Z
   NUMBER   SYMBOL  FORCE CONSTANT  FORCE CONSTANT  FORCE CONSTANT

      1       C        7.744062        7.741633        8.935395
      2       C        7.745432        8.061650        9.322490
      3       C        8.054314        7.776807        9.302648
      4       C        7.835022        7.814736        8.658106
      5       C        8.396869        8.396086        8.362954
      6       C        8.273007        8.307335        8.874855
      7       C        8.789763        9.283919        9.360846
      8       C        9.207855        8.977220        9.191672
      9       C        8.640646        9.130863        9.430697
     10       C        8.854976        8.619412        9.042674
     11       H        1.369087        1.365892        3.542214
     12       H        1.366924        1.253341        3.632676
     13       H        1.252061        1.374483        3.629708
     14       H        1.375137        1.370344        3.884803
     15       H        1.579038        1.573601        3.485594
     16       H        5.255235        0.793524        0.701569
     17       H        0.787155        5.261675        0.701491
     18       H        1.377269        1.370731        4.019752
     19       H        5.244172        0.741841        0.677964
     20       H        1.320756        1.323429        4.127194
     21       H        0.802796        5.178197        0.683046
     22       H        1.012241        1.016700        4.170507
     23       H        0.991189        1.028472        4.181087
     24       H        1.009124        1.013512        4.195592
     25       H        1.397182        1.281086        3.803436
     26       H        1.072622        1.115682        4.279530



 TOTAL CPU TIME:             4.96 SECONDS

 == MOPAC DONE ==
