 *******************************************************************************
 ** Site#: 14399           For non-commercial use only        Version 13.159M **
 *******************************************************************************
 ** Cite this work as: MOPAC2012, James J. P. Stewart, Stewart Computational  **
 ** Chemistry, Version 13.159M web: HTTP://OpenMOPAC.net  Days remaining:   6 **
 *******************************************************************************
 **                                                                           **
 **                                MOPAC2012                                  **
 **                                                                           **
 *******************************************************************************

                            PM3 CALCULATION RESULTS


 *******************************************************************************
 *  CALCULATION DONE:                                Mon Jun  2 11:08:49 2014  *
 *  PM3      - The PM3 Hamiltonian to be used
 *  PRECISE  - CRITERIA TO BE INCREASED BY 100 TIMES
 *  NOSYM    - POINT-GROUP SYMMETRY SET TO C1
 *  T=       - A TIME OF 172800.0 SECONDS REQUESTED
 *  DUMP=N   - RESTART FILE WRITTEN EVERY  7200.000 SECONDS
 *******************************************************************************
pm3  precise nosym
 InChI=1S/C5H6/c1-2-4-5-3-1/h1-4H,5H2

   ATOM   CHEMICAL          X               Y               Z
  NUMBER   SYMBOL      (ANGSTROMS)     (ANGSTROMS)     (ANGSTROMS)
 
     1       C         -1.11860000  *   0.07770000  *  -0.22200000  *
     2       C         -0.29410000  *  -1.11920000  *   0.12290000  *
     3       C         -0.07350000  *   1.14480000  *  -0.19590000  *
     4       C          0.97220000  *  -0.78680000  *   0.30740000  *
     5       C          1.11150000  *   0.64200000  *   0.10620000  *
     6       H         -1.56620000  *  -0.02150000  *  -1.23670000  *
     7       H         -1.90080000  *   0.26250000  *   0.54860000  *
     8       H         -0.67630000  *  -2.13090000  *   0.21230000  *
     9       H         -0.25470000  *   2.19560000  *  -0.39710000  *
    10       H          1.76930000  *  -1.47580000  *   0.56640000  *
    11       H          2.03120000  *   1.21170000  *   0.18790000  *
 


          CARTESIAN COORDINATES 

    NO.       ATOM         X         Y         Z

     1         C       -1.1186    0.0777   -0.2220
     2         C       -0.2941   -1.1192    0.1229
     3         C       -0.0735    1.1448   -0.1959
     4         C        0.9722   -0.7868    0.3074
     5         C        1.1115    0.6420    0.1062
     6         H       -1.5662   -0.0215   -1.2367
     7         H       -1.9008    0.2625    0.5486
     8         H       -0.6763   -2.1309    0.2123
     9         H       -0.2547    2.1956   -0.3971
    10         H        1.7693   -1.4758    0.5664
    11         H        2.0312    1.2117    0.1879

  H: (PM3): J. J. P. STEWART, J. COMP. CHEM. 10, 209 (1989).
  C: (PM3): J. J. P. STEWART, J. COMP. CHEM. 10, 209 (1989).

           Empirical Formula: C5 H6  =    11 atoms



      MOLECULAR POINT GROUP   :   C1  


      RHF CALCULATION, NO. OF DOUBLY OCCUPIED LEVELS =   13

      Geometry optimization using EF

          DIAGONAL MATRIX USED AS START HESSIAN

 CYCLE:     1 TIME:   0.003 TIME LEFT:  2.00D  GRAD.:   108.910 HEAT: 34.98364
 CYCLE:     2 TIME:   0.005 TIME LEFT:  2.00D  GRAD.:    53.891 HEAT: 33.45537
 CYCLE:     3 TIME:   0.002 TIME LEFT:  2.00D  GRAD.:    24.958 HEAT: 32.58831
 CYCLE:     4 TIME:   0.003 TIME LEFT:  2.00D  GRAD.:    28.234 HEAT: 32.36985
 CYCLE:     5 TIME:   0.002 TIME LEFT:  2.00D  GRAD.:    28.450 HEAT: 32.22590
 CYCLE:     6 TIME:   0.002 TIME LEFT:  2.00D  GRAD.:    16.859 HEAT: 31.96841
 CYCLE:     7 TIME:   0.003 TIME LEFT:  2.00D  GRAD.:    14.148 HEAT: 31.88571
 CYCLE:     8 TIME:   0.002 TIME LEFT:  2.00D  GRAD.:    13.868 HEAT: 31.80906
 CYCLE:     9 TIME:   0.002 TIME LEFT:  2.00D  GRAD.:    17.872 HEAT: 31.78513
 CYCLE:    10 TIME:   0.002 TIME LEFT:  2.00D  GRAD.:     7.648 HEAT: 31.71722
 CYCLE:    11 TIME:   0.003 TIME LEFT:  2.00D  GRAD.:     4.900 HEAT: 31.70924
 CYCLE:    12 TIME:   0.002 TIME LEFT:  2.00D  GRAD.:     2.353 HEAT: 31.70307
 CYCLE:    13 TIME:   0.002 TIME LEFT:  2.00D  GRAD.:     3.129 HEAT: 31.70261
 CYCLE:    14 TIME:   0.002 TIME LEFT:  2.00D  GRAD.:     1.718 HEAT: 31.69988
 CYCLE:    15 TIME:   0.002 TIME LEFT:  2.00D  GRAD.:     1.404 HEAT: 31.69862
 CYCLE:    16 TIME:   0.002 TIME LEFT:  2.00D  GRAD.:     0.663 HEAT: 31.69748
 CYCLE:    17 TIME:   0.002 TIME LEFT:  2.00D  GRAD.:     0.281 HEAT: 31.69715
 CYCLE:    18 TIME:   0.002 TIME LEFT:  2.00D  GRAD.:     0.193 HEAT: 31.69709
 CYCLE:    19 TIME:   0.002 TIME LEFT:  2.00D  GRAD.:     0.187 HEAT: 31.69700
 CYCLE:    20 TIME:   0.002 TIME LEFT:  2.00D  GRAD.:     0.147 HEAT: 31.69697
 CYCLE:    21 TIME:   0.002 TIME LEFT:  2.00D  GRAD.:     0.075 HEAT: 31.69695
 CYCLE:    22 TIME:   0.002 TIME LEFT:  2.00D  GRAD.:     0.088 HEAT: 31.69693
 CYCLE:    23 TIME:   0.002 TIME LEFT:  2.00D  GRAD.:     0.127 HEAT: 31.69691
 CYCLE:    24 TIME:   0.002 TIME LEFT:  2.00D  GRAD.:     0.097 HEAT: 31.69689
 CYCLE:    25 TIME:   0.002 TIME LEFT:  2.00D  GRAD.:     0.049 HEAT: 31.69688

     RMS GRADIENT =  0.04862  IS LESS THAN CUTOFF =  0.05000



 -------------------------------------------------------------------------------
pm3  precise nosym
 InChI=1S/C5H6/c1-2-4-5-3-1/h1-4H,5H2



     GEOMETRY OPTIMISED USING EIGENVECTOR FOLLOWING (EF).     
     SCF FIELD WAS ACHIEVED                                   


                              PM3 CALCULATION
                                                       MOPAC2012 (Version: 13.159M)
                                                       Mon Jun  2 11:08:49 2014
                                                       No. of days left =   6




          FINAL HEAT OF FORMATION =         31.69688 KCAL/MOL =     132.61974 KJ/MOL


          TOTAL ENERGY            =       -683.82364 EV
          ELECTRONIC ENERGY       =      -2535.10810 EV  POINT GROUP:     C1  
          CORE-CORE REPULSION     =       1851.28446 EV
          COSMO AREA              =        108.82 SQUARE ANGSTROMS
          COSMO VOLUME            =         95.33 CUBIC ANGSTROMS

          GRADIENT NORM           =          0.04862
          IONIZATION POTENTIAL    =          9.232542 EV
          HOMO LUMO ENERGIES (EV) =         -9.233  0.324
          NO. OF FILLED LEVELS    =         13
          MOLECULAR WEIGHT        =         66.102

          MOLECULAR DIMENSIONS (Angstroms)

            Atom       Atom       Distance
            H     9    H     8     4.40781
            H    11    H     6     3.88290
            H     7    H    10     1.73141


          SCF CALCULATIONS        =         31
          COMPUTATION TIME        =          0.058 SECONDS




   ATOM   CHEMICAL          X               Y               Z
  NUMBER   SYMBOL      (ANGSTROMS)     (ANGSTROMS)     (ANGSTROMS)
 
     1       C         -1.10924849  *   0.07708917  *  -0.22028736  *
     2       C         -0.30549950  *  -1.14423472  *   0.12473891  *
     3       C         -0.07988492  *   1.17106480  *  -0.20140328  *
     4       C          0.98767003  *  -0.79517998  *   0.31167470  *
     5       C          1.12829165  *   0.64818520  *   0.10845944  *
     6       H         -1.58961613  *  -0.01572346  *  -1.21113615  *
     7       H         -1.91299145  *   0.25907601  *   0.51592196  *
     8       H         -0.74721755  *  -2.13504264  *   0.19970309  *
     9       H         -0.32402029  *   2.20948925  *  -0.41241815  *
    10       H          1.81918422  *  -1.44705298  *   0.57132025  *
    11       H          2.07490240  *   1.17629266  *   0.20219021  *

           Empirical Formula: C5 H6  =    11 atoms



      MOLECULAR POINT GROUP   :   C1  


                  EIGENVALUES  
 -39.37575 -27.31571 -27.21203 -19.28009 -18.49247 -18.05824 -14.94416 -13.92837
 -13.65363 -12.95459 -12.78552 -10.91899  -9.23254   0.32420   2.02171   3.36558
   3.39569   3.84114   3.86335   4.24319   4.33346   4.39047   4.68058   5.75885
   5.79247   6.15757


              NET ATOMIC CHARGES AND DIPOLE CONTRIBUTIONS

  ATOM NO.   TYPE          CHARGE      No. of ELECS.   s-Pop       p-Pop       
    1          C          -0.052457        4.0525     1.14596     2.90650
    2          C          -0.162632        4.1626     1.20758     2.95505
    3          C          -0.162608        4.1626     1.20758     2.95503
    4          C          -0.121317        4.1213     1.19249     2.92883
    5          C          -0.121271        4.1213     1.19248     2.92879
    6          H           0.081638        0.9184     0.91836
    7          H           0.081626        0.9184     0.91837
    8          H           0.115014        0.8850     0.88499
    9          H           0.115024        0.8850     0.88498
   10          H           0.113495        0.8865     0.88650
   11          H           0.113488        0.8865     0.88651
 DIPOLE           X         Y         Z       TOTAL
 POINT-CHG.    -0.495     0.035    -0.098     0.505
 HYBRID        -0.028     0.002    -0.005     0.028
 SUM           -0.522     0.036    -0.103     0.534


          ATOMIC ORBITAL ELECTRON POPULATIONS

    Atom      s        px        py        pz   
    1  C   1.14596   0.97087   0.93050   1.00512
    2  C   1.20758   0.96284   0.97704   1.01517
    3  C   1.20758   0.95955   0.97937   1.01611
    4  C   1.19249   0.96507   0.95296   1.01080
    5  C   1.19248   0.97153   0.94834   1.00893
    6  H   0.91836
    7  H   0.91837
    8  H   0.88499
    9  H   0.88498
   10  H   0.88650
   11  H   0.88651
 *******************************************************************************
 ** Site#: 14399           For non-commercial use only        Version 13.159M **
 *******************************************************************************
 ** Cite this work as: MOPAC2012, James J. P. Stewart, Stewart Computational  **
 ** Chemistry, Version 13.159M web: HTTP://OpenMOPAC.net  Days remaining:   6 **
 *******************************************************************************
 **                                                                           **
 **                                MOPAC2012                                  **
 **                                                                           **
 *******************************************************************************

                            PM3 CALCULATION RESULTS


 *******************************************************************************
 *  CALCULATION DONE:                                Mon Jun  2 11:08:49 2014  *
 *  PM3      - The PM3 Hamiltonian to be used
 *  OLDGEO   - PREVIOUS GEOMETRY TO BE USED
 *  PRECISE  - CRITERIA TO BE INCREASED BY 100 TIMES
 *  NOSYM    - POINT-GROUP SYMMETRY SET TO C1
 *  T=       - A TIME OF 172800.0 SECONDS REQUESTED
 *  DUMP=N   - RESTART FILE WRITTEN EVERY  7200.000 SECONDS
 *  THERMO   - THERMODYNAMIC QUANTITIES TO BE CALCULATED
 *******************************************************************************
oldgeo thermo nosym precise  pm3

   ATOM   CHEMICAL          X               Y               Z
  NUMBER   SYMBOL      (ANGSTROMS)     (ANGSTROMS)     (ANGSTROMS)
 
     1       C         -1.10924849  *   0.07708917  *  -0.22028736  *
     2       C         -0.30549950  *  -1.14423472  *   0.12473891  *
     3       C         -0.07988492  *   1.17106480  *  -0.20140328  *
     4       C          0.98767003  *  -0.79517998  *   0.31167470  *
     5       C          1.12829165  *   0.64818520  *   0.10845944  *
     6       H         -1.58961613  *  -0.01572346  *  -1.21113615  *
     7       H         -1.91299145  *   0.25907601  *   0.51592196  *
     8       H         -0.74721755  *  -2.13504264  *   0.19970309  *
     9       H         -0.32402029  *   2.20948925  *  -0.41241815  *
    10       H          1.81918422  *  -1.44705298  *   0.57132025  *
    11       H          2.07490240  *   1.17629266  *   0.20219021  *
 


          CARTESIAN COORDINATES 

    NO.       ATOM         X         Y         Z

     1         C       -1.1092    0.0771   -0.2203
     2         C       -0.3055   -1.1442    0.1247
     3         C       -0.0799    1.1711   -0.2014
     4         C        0.9877   -0.7952    0.3117
     5         C        1.1283    0.6482    0.1085
     6         H       -1.5896   -0.0157   -1.2111
     7         H       -1.9130    0.2591    0.5159
     8         H       -0.7472   -2.1350    0.1997
     9         H       -0.3240    2.2095   -0.4124
    10         H        1.8192   -1.4471    0.5713
    11         H        2.0749    1.1763    0.2022

  H: (PM3): J. J. P. STEWART, J. COMP. CHEM. 10, 209 (1989).
  C: (PM3): J. J. P. STEWART, J. COMP. CHEM. 10, 209 (1989).

           Empirical Formula: C5 H6  =    11 atoms



      MOLECULAR POINT GROUP   :   C1  


      RHF CALCULATION, NO. OF DOUBLY OCCUPIED LEVELS =   13



          HEAT OF FORMATION =      31.696878 KCALS/MOLE


          INTERNAL COORDINATE DERIVATIVES

   NUMBER  ATOM       BOND         ANGLE      DIHEDRAL

     1       C     -0.004355     0.006321    -0.002525
     2       C     -0.004411     0.014735     0.000702
     3       C     -0.008401     0.009956    -0.005496
     4       C      0.007775     0.012221    -0.007924
     5       C     -0.003750    -0.003078     0.002914
     6       H     -0.008506    -0.015453    -0.000882
     7       H      0.006549     0.000603    -0.003876
     8       H      0.004757     0.010184     0.007333
     9       H     -0.006872    -0.009832     0.001053
    10       H      0.005780    -0.017867    -0.000129
    11       H      0.011436    -0.007791     0.008830


          GRADIENT NORM =   0.04609


          TIME FOR SCF CALCULATION =    0.00

          TIME FOR DERIVATIVES     =    0.00

          MOLECULAR WEIGHT =   66.10



          ROTATIONAL CONSTANTS IN CM(-1)

          A =    0.27932535   B =    0.27648843   C =    0.14269934



           PRINCIPAL MOMENTS OF INERTIA IN UNITS OF 10**(-40)*GRAM-CM**2

          A =      100.2157   B =      101.2439   C =      196.1661


          ORIENTATION OF MOLECULE IN FORCE CALCULATION

    NO.       ATOM         X         Y         Z

     1          C      -0.7721   -0.9681   -0.0001
     2          C       0.7302   -0.9681   -0.0001
     3          C      -1.1064    0.4964   -0.0001
     4          C       1.1812    0.3069    0.0000
     5          C       0.0363    1.2199    0.0001
     6          H      -1.1812   -1.4813   -0.8891
     7          H      -1.1810   -1.4810    0.8893
     8          H       1.3166   -1.8839    0.0000
     9          H      -2.1297    0.8642   -0.0001
    10          H       2.2157    0.6439    0.0000
    11          H       0.1349    2.3034    0.0004


    FIRST DERIVATIVES WILL BE USED IN THE CALCULATION OF SECOND DERIVATIVES

          ESTIMATED TIME TO COMPLETE CALCULATION =        0.32 SECONDS

    FOR POINT-GROUP C1   THERE ARE   1 UNIQUE SYMMETRY FUNCTIONS.

 STEP:   1 TIME =     0.01 SECS, INTEGRAL =      0.01 TIME LEFT: 172799.99
 STEP:   2 TIME =     0.01 SECS, INTEGRAL =      0.02 TIME LEFT: 172799.98
 STEP:   3 TIME =     0.01 SECS, INTEGRAL =      0.02 TIME LEFT: 172799.97
 STEP:   4 TIME =     0.01 SECS, INTEGRAL =      0.03 TIME LEFT: 172799.97
 STEP:   5 TIME =     0.01 SECS, INTEGRAL =      0.04 TIME LEFT: 172799.96
 STEP:   6 TIME =     0.01 SECS, INTEGRAL =      0.05 TIME LEFT: 172799.95
 STEP:   7 TIME =     0.01 SECS, INTEGRAL =      0.05 TIME LEFT: 172799.94
 STEP:   8 TIME =     0.01 SECS, INTEGRAL =      0.06 TIME LEFT: 172799.94
 STEP:   9 TIME =     0.01 SECS, INTEGRAL =      0.07 TIME LEFT: 172799.93
 STEP:  10 TIME =     0.01 SECS, INTEGRAL =      0.08 TIME LEFT: 172799.92
 STEP:  11 TIME =     0.01 SECS, INTEGRAL =      0.08 TIME LEFT: 172799.91
 STEP:  12 TIME =     0.01 SECS, INTEGRAL =      0.09 TIME LEFT: 172799.91
 STEP:  13 TIME =     0.01 SECS, INTEGRAL =      0.10 TIME LEFT: 172799.90
 STEP:  14 TIME =     0.01 SECS, INTEGRAL =      0.11 TIME LEFT: 172799.89
 STEP:  15 TIME =     0.01 SECS, INTEGRAL =      0.11 TIME LEFT: 172799.88
 STEP:  16 TIME =     0.01 SECS, INTEGRAL =      0.12 TIME LEFT: 172799.88
 STEP:  17 TIME =     0.01 SECS, INTEGRAL =      0.13 TIME LEFT: 172799.87
 STEP:  18 TIME =     0.01 SECS, INTEGRAL =      0.14 TIME LEFT: 172799.86
 STEP:  19 TIME =     0.01 SECS, INTEGRAL =      0.14 TIME LEFT: 172799.85
 STEP:  20 TIME =     0.01 SECS, INTEGRAL =      0.15 TIME LEFT: 172799.85
 STEP:  21 TIME =     0.01 SECS, INTEGRAL =      0.16 TIME LEFT: 172799.84
 STEP:  22 TIME =     0.01 SECS, INTEGRAL =      0.17 TIME LEFT: 172799.83
 STEP:  23 TIME =     0.01 SECS, INTEGRAL =      0.17 TIME LEFT: 172799.82
 STEP:  24 TIME =     0.01 SECS, INTEGRAL =      0.18 TIME LEFT: 172799.82
 STEP:  25 TIME =     0.01 SECS, INTEGRAL =      0.19 TIME LEFT: 172799.81
 STEP:  26 TIME =     0.01 SECS, INTEGRAL =      0.20 TIME LEFT: 172799.80
 STEP:  27 TIME =     0.01 SECS, INTEGRAL =      0.20 TIME LEFT: 172799.79
 STEP:  28 TIME =     0.01 SECS, INTEGRAL =      0.21 TIME LEFT: 172799.79
 STEP:  29 TIME =     0.01 SECS, INTEGRAL =      0.22 TIME LEFT: 172799.78
 STEP:  30 TIME =     0.01 SECS, INTEGRAL =      0.23 TIME LEFT: 172799.77
 STEP:  31 TIME =     0.01 SECS, INTEGRAL =      0.23 TIME LEFT: 172799.76
 STEP:  32 TIME =     0.01 SECS, INTEGRAL =      0.24 TIME LEFT: 172799.76
 STEP:  33 TIME =     0.01 SECS, INTEGRAL =      0.25 TIME LEFT: 172799.75

(To convert to Hartree/Bohr^2, multiply by (10^(-21) x N x a0^2)/(4.184 x 627.51) = 0.0642)


           FORCE MATRIX IN MILLIDYNES/ANGSTROM


                  C  1       C  2       C  3       C  4       C  5       H  6
 ------------------------------------------------------------------------------
     C    1  14.879892
     C    2   4.400938  17.887054
     C    3   4.399156   1.126998  17.883416
     C    4   1.256271   9.663513   1.609472  18.252441
     C    5   1.256733   1.609827   9.662145   5.143301  18.252111
     H    6   4.517182   0.416150   0.416208   0.047134   0.047114   5.123642
     H    7   4.517316   0.416120   0.416131   0.047151   0.047143   0.548863
     H    8   0.402258   5.087859   0.043650   0.444255   0.101567   0.011180
     H    9   0.402545   0.043603   5.087434   0.101350   0.444191   0.011172
     H   10   0.116784   0.446984   0.050106   5.074014   0.420337   0.015981
     H   11   0.116818   0.050439   0.447348   0.420528   5.073892   0.015916


                  H  7       H  8       H  9       H 10       H 11
 ------------------------------------------------------------------
     H    7   5.123707
     H    8   0.011156   5.486935
     H    9   0.011205   0.010756   5.486476
     H   10   0.015976   0.042194   0.005430   5.465324
     H   11   0.015908   0.005509   0.042168   0.009568   5.465300


          HEAT OF FORMATION =      31.696878 KCALS/MOLE

          ZERO POINT ENERGY      58.168 KCAL/MOL


           NORMAL COORDINATE ANALYSIS (Total motion = 1 Angstrom)


   Root No.       1         2         3         4         5         6         7         8

                 1 A       2 A       3 A       4 A       5 A       6 A       7 A       8 A   

                 342.7     478.3     708.7     791.1     798.1     825.0     874.7     960.7
  
           1    0.0000    0.0000    0.0000    0.0000    0.0656    0.0483    0.0000    0.0000
           2    0.0000    0.0000    0.0000    0.0000    0.0822   -0.0387    0.0000    0.0000
           3   -0.0374    0.0000   -0.0294   -0.0001    0.0000    0.0000    0.0577   -0.0001
           4    0.0000    0.0000    0.0000    0.0000    0.0712    0.0001    0.0000    0.0000
           5    0.0000    0.0000    0.0000    0.0000   -0.0673   -0.0776    0.0000    0.0000
           6    0.0514    0.0420   -0.0049    0.0297    0.0000    0.0000   -0.0126    0.0077
           7    0.0000    0.0000    0.0000    0.0000   -0.0813    0.0759    0.0000    0.0000
           8    0.0000    0.0000    0.0000    0.0000    0.0545    0.0171    0.0000    0.0000
           9    0.0514   -0.0420   -0.0047   -0.0297    0.0000    0.0000   -0.0125   -0.0076
          10    0.0000    0.0000    0.0000    0.0000   -0.0218   -0.1292    0.0000    0.0000
          11    0.0000    0.0000    0.0000    0.0000   -0.0474   -0.0255    0.0000    0.0000
          12   -0.0271   -0.0649   -0.0138    0.0244    0.0000    0.0000   -0.0276   -0.0457
          13    0.0000    0.0000    0.0000    0.0000   -0.0414   -0.0038    0.0000    0.0000
          14    0.0000    0.0000    0.0000    0.0000   -0.0317    0.1317    0.0000    0.0000
          15   -0.0270    0.0650   -0.0137   -0.0246    0.0000   -0.0001   -0.0276    0.0456
          16    0.0921    0.0551   -0.0729    0.0662    0.0789    0.0141    0.0913    0.1406
          17    0.1155   -0.0440   -0.0910   -0.0533    0.0989   -0.0116    0.1145   -0.1122
          18   -0.1502    0.0001    0.0617    0.0002   -0.0120    0.0002   -0.0562    0.0000
          19   -0.0921   -0.0551    0.0730   -0.0662    0.0789    0.0142   -0.0913   -0.1408
          20   -0.1155    0.0441    0.0911    0.0533    0.0989   -0.0114   -0.1146    0.1124
          21   -0.1501    0.0001    0.0617    0.0002    0.0119    0.0001   -0.0562    0.0000
          22    0.0000    0.0000    0.0000    0.0000    0.0297    0.1014    0.0000    0.0001
          23    0.0000    0.0000    0.0000    0.0000   -0.0953   -0.0144    0.0000    0.0000
          24    0.1378    0.0977    0.1919   -0.2569   -0.0003    0.0000   -0.0414   -0.0635
          25    0.0000    0.0000    0.0000    0.0000   -0.0995    0.0369    0.0000    0.0000
          26    0.0000    0.0000    0.0000    0.0000    0.0075   -0.0957    0.0000    0.0000
          27    0.1376   -0.0977    0.1904    0.2580    0.0000    0.0001   -0.0417    0.0632
          28    0.0000    0.0000    0.0000    0.0000   -0.0528   -0.1140    0.0000    0.0000
          29    0.0000    0.0000    0.0000    0.0000    0.0464   -0.0791    0.0000    0.0001
          30   -0.0547   -0.2247    0.1439   -0.1027   -0.0002   -0.0001    0.2325    0.2034
          31    0.0000    0.0000    0.0000    0.0000    0.0573    0.0520    0.0000    0.0000
          32    0.0000    0.0000   -0.0001    0.0000   -0.0410    0.1287   -0.0001    0.0001
          33   -0.0545    0.2249    0.1433    0.1040   -0.0001   -0.0001    0.2324   -0.2031


   Root No.       9        10        11        12        13        14        15        16

                 9 A      10 A      11 A      12 A      13 A      14 A      15 A      16 A   

                 985.6    1011.1    1021.5    1036.3    1088.5    1091.0    1206.8    1219.2
  
           1    0.0000   -0.0263    0.0180    0.0001    0.0027   -0.0015   -0.0329    0.0240
           2    0.0000   -0.0333   -0.0140    0.0000   -0.0019   -0.0023   -0.0413   -0.0192
           3    0.0451    0.0000    0.0000   -0.0001   -0.0001    0.0001    0.0000    0.0000
           4    0.0000    0.0255   -0.0326   -0.0001    0.0041   -0.0100    0.0558    0.0221
           5    0.0000   -0.0057    0.0213    0.0001   -0.0151    0.0054   -0.0167    0.0127
           6   -0.0540    0.0000    0.0001   -0.0421    0.0001   -0.0001    0.0000   -0.0001
           7    0.0000   -0.0117   -0.0278   -0.0001    0.0144    0.0102   -0.0287   -0.0075
           8    0.0000    0.0240    0.0267    0.0001    0.0005   -0.0087    0.0509   -0.0242
           9   -0.0539    0.0001   -0.0001    0.0423   -0.0001    0.0001    0.0000    0.0001
          10    0.0000   -0.0206   -0.0028    0.0000   -0.0038   -0.0049    0.0515   -0.0099
          11    0.0000    0.0057   -0.0040    0.0000   -0.0006    0.0092   -0.0073    0.0232
          12    0.0262   -0.0001   -0.0002    0.0318    0.0001   -0.0001    0.0000   -0.0001
          13    0.0000    0.0102    0.0032    0.0000   -0.0015    0.0098   -0.0184   -0.0249
          14    0.0000   -0.0188    0.0039    0.0000    0.0041   -0.0021    0.0485    0.0047
          15    0.0262    0.0000    0.0001   -0.0319    0.0000    0.0000    0.0000    0.0000
          16    0.0622   -0.0344    0.1967    0.1934    0.0651    0.0001   -0.1046   -0.0842
          17    0.0769   -0.0457   -0.1564   -0.1544   -0.0512   -0.0106   -0.1316    0.0667
          18   -0.0320    0.0111    0.0000    0.0001   -0.0003    0.0026    0.0749    0.0002
          19   -0.0622   -0.0342    0.1976   -0.1925    0.0649    0.0002   -0.1047   -0.0840
          20   -0.0770   -0.0456   -0.1570    0.1537   -0.0511   -0.0106   -0.1315    0.0667
          21   -0.0320   -0.0109    0.0002    0.0001    0.0001   -0.0024   -0.0748   -0.0001
          22    0.0001    0.1984   -0.0534   -0.0001   -0.1672   -0.1745   -0.0634   -0.1396
          23    0.0001    0.1059    0.0074    0.0001   -0.1267   -0.0994   -0.0991   -0.0915
          24    0.1932   -0.0002   -0.0003    0.0935    0.0001   -0.0001    0.0001   -0.0001
          25    0.0000    0.0587   -0.0201   -0.0001    0.0931   -0.0423   -0.0827    0.0579
          26    0.0001    0.2176    0.0467    0.0001    0.2148   -0.1568   -0.0846    0.1564
          27    0.1935    0.0000    0.0004   -0.0940   -0.0002    0.0003   -0.0001    0.0001
          28    0.0000   -0.0612    0.0392    0.0001   -0.0522   -0.0936    0.0592    0.0470
          29    0.0000    0.1331   -0.1358   -0.0004    0.1468    0.2837   -0.0150   -0.1529
          30   -0.0999   -0.0001    0.0002   -0.0852    0.0002   -0.0003    0.0000   -0.0002
          31    0.0000    0.1458    0.1396    0.0004   -0.1921    0.2673   -0.0289    0.1590
          32    0.0000   -0.0302   -0.0076    0.0000    0.0218   -0.0248    0.0545   -0.0116
          33   -0.1000    0.0001   -0.0003    0.0854    0.0000    0.0000   -0.0001    0.0000


   Root No.      17        18        19        20        21        22        23        24

                17 A      18 A      19 A      20 A      21 A      22 A      23 A      24 A   

                1351.0    1363.3    1419.3    1718.0    1782.8    2985.3    3053.7    3133.7
  
           1    0.1114    0.0490   -0.0288   -0.0093   -0.0003    0.0000    0.0259   -0.0001
           2   -0.0890    0.0612   -0.0360   -0.0116    0.0003    0.0000    0.0325    0.0001
           3    0.0000    0.0000    0.0000    0.0000    0.0000   -0.0610    0.0000    0.0001
           4   -0.0776   -0.0094    0.0502    0.0505   -0.0545    0.0000    0.0012   -0.0078
           5    0.0161    0.0071    0.0096    0.1310   -0.1103    0.0000   -0.0006    0.0111
           6    0.0000    0.0000    0.0000    0.0000   -0.0001   -0.0003    0.0000    0.0001
           7   -0.0329    0.0089   -0.0017    0.1167    0.0952    0.0000   -0.0008   -0.0129
           8    0.0721   -0.0074    0.0509    0.0785    0.0775    0.0000    0.0011    0.0052
           9   -0.0001    0.0000    0.0000    0.0000    0.0001   -0.0003    0.0000    0.0000
          10    0.0191   -0.0414   -0.0722   -0.0327    0.0407    0.0000    0.0004    0.0240
          11   -0.0145    0.0164    0.0577   -0.1249    0.1247    0.0000   -0.0003    0.0083
          12    0.0001    0.0000    0.0001    0.0000    0.0000   -0.0002    0.0000   -0.0001
          13    0.0184    0.0253    0.0722   -0.1148   -0.1122    0.0000   -0.0004   -0.0028
          14   -0.0155   -0.0367   -0.0575   -0.0599   -0.0673    0.0000    0.0003   -0.0255
          15    0.0000    0.0000    0.0000    0.0000    0.0000   -0.0002    0.0000   -0.0002
          16   -0.1225   -0.1616    0.0309   -0.0078    0.0291    0.1780   -0.1544   -0.0007
          17    0.0985   -0.2025    0.0386   -0.0098   -0.0231    0.2233   -0.1936    0.0005
          18   -0.0006    0.2208   -0.0616    0.0050    0.0000    0.3702   -0.3792    0.0002
          19   -0.1225   -0.1617    0.0308   -0.0078    0.0291   -0.1779   -0.1544   -0.0007
          20    0.0985   -0.2025    0.0386   -0.0099   -0.0232   -0.2231   -0.1936    0.0007
          21    0.0005   -0.2208    0.0614   -0.0051    0.0000    0.3702    0.3795    0.0002
          22   -0.0258   -0.0128   -0.1045   -0.0922    0.0725    0.0000   -0.0056    0.0898
          23    0.0507    0.0085   -0.0894    0.0673   -0.0539    0.0000    0.0114   -0.1375
          24    0.0000    0.0000    0.0000   -0.0001   -0.0001   -0.0009    0.0000    0.0002
          25   -0.0551    0.0110   -0.0637    0.0865    0.0686    0.0000    0.0124    0.1578
          26    0.0137   -0.0105   -0.1216   -0.0749   -0.0585    0.0000   -0.0030   -0.0582
          27   -0.0001    0.0000   -0.0001    0.0000    0.0001   -0.0009    0.0000   -0.0001
          28   -0.0211   -0.0275   -0.0195   -0.0882    0.1133    0.0000   -0.0109   -0.2772
          29    0.1095   -0.0402   -0.1157   -0.0347   -0.0348    0.0000   -0.0038   -0.0903
          30    0.0001    0.0001    0.0001    0.0000    0.0000   -0.0007    0.0000   -0.0001
          31   -0.1114   -0.0334   -0.1081   -0.0141    0.0590    0.0000   -0.0013    0.0268
          32   -0.0039   -0.0357   -0.0447   -0.0940   -0.1026    0.0000   -0.0115    0.2941
          33    0.0000    0.0000    0.0000    0.0001    0.0001   -0.0007    0.0000   -0.0002


   Root No.      25        26        27

                25 A      26 A      27 A   

                3136.1    3148.3    3158.2
  
           1    0.0002    0.0001   -0.0013
           2    0.0003   -0.0001   -0.0016
           3    0.0001   -0.0001   -0.0001
           4    0.0099   -0.0122    0.0108
           5   -0.0145    0.0234   -0.0209
           6    0.0001   -0.0001   -0.0001
           7   -0.0164   -0.0256   -0.0226
           8    0.0064    0.0067    0.0058
           9    0.0000    0.0000    0.0000
          10   -0.0208   -0.0140    0.0187
          11   -0.0067   -0.0072    0.0078
          12    0.0000    0.0000    0.0000
          13   -0.0019    0.0039    0.0034
          14   -0.0212    0.0155    0.0199
          15   -0.0001    0.0001    0.0001
          16    0.0001   -0.0010    0.0041
          17    0.0000    0.0009    0.0052
          18    0.0001    0.0000    0.0094
          19    0.0001   -0.0010    0.0041
          20    0.0002    0.0008    0.0050
          21    0.0002   -0.0002   -0.0097
          22   -0.1148    0.1579   -0.1309
          23    0.1772   -0.2458    0.2041
          24    0.0002   -0.0001   -0.0002
          25    0.1978    0.2752    0.2258
          26   -0.0722   -0.0994   -0.0813
          27   -0.0001    0.0000    0.0001
          28    0.2406    0.1539   -0.1930
          29    0.0765    0.0512   -0.0624
          30   -0.0001    0.0001    0.0001
          31    0.0206   -0.0160   -0.0179
          32    0.2459   -0.1650   -0.2013
          33   -0.0002    0.0001    0.0001


           MASS-WEIGHTED COORDINATE ANALYSIS (NORMAL COORDINATES)


   Root No.       1         2         3         4         5         6         7         8

                 1 A       2 A       3 A       4 A       5 A       6 A       7 A       8 A   

                 342.7     478.3     708.7     791.1     798.1     825.0     874.7     960.7
  
           1    0.0000    0.0000    0.0001   -0.0001    0.3246    0.2048    0.0001   -0.0001
           2    0.0000    0.0000    0.0001   -0.0001    0.4065   -0.1639    0.0000    0.0000
           3   -0.2695    0.0001   -0.2503   -0.0010    0.0000    0.0002    0.4226   -0.0004
           4    0.0000    0.0000    0.0001   -0.0001    0.3519    0.0003    0.0001    0.0002
           5    0.0000    0.0000   -0.0001    0.0001   -0.3326   -0.3290   -0.0001   -0.0001
           6    0.3701    0.2774   -0.0420    0.2275    0.0000    0.0002   -0.0922    0.0587
           7    0.0000    0.0001   -0.0002    0.0000   -0.4022    0.3216    0.0000    0.0001
           8    0.0000    0.0000    0.0001    0.0000    0.2693    0.0724    0.0002   -0.0001
           9    0.3700   -0.2778   -0.0403   -0.2270    0.0002    0.0000   -0.0918   -0.0579
          10    0.0000   -0.0001    0.0000    0.0001   -0.1080   -0.5477   -0.0001   -0.0001
          11    0.0000    0.0000   -0.0001    0.0001   -0.2345   -0.1080   -0.0001    0.0000
          12   -0.1949   -0.4293   -0.1173    0.1865    0.0000   -0.0001   -0.2021   -0.3471
          13    0.0000    0.0000   -0.0001    0.0000   -0.2048   -0.0162   -0.0001    0.0000
          14    0.0000    0.0000   -0.0001    0.0000   -0.1565    0.5582    0.0001   -0.0001
          15   -0.1946    0.4294   -0.1165   -0.1878    0.0001   -0.0003   -0.2021    0.3465
          16    0.1922    0.1055   -0.1798    0.1466    0.1131    0.0173    0.1936    0.3093
          17    0.2410   -0.0843   -0.2243   -0.1181    0.1417   -0.0143    0.2428   -0.2469
          18   -0.3134    0.0002    0.1522    0.0004   -0.0172    0.0002   -0.1193    0.0001
          19   -0.1923   -0.1055    0.1800   -0.1467    0.1130    0.0175   -0.1936   -0.3098
          20   -0.2411    0.0844    0.2245    0.1180    0.1416   -0.0140   -0.2429    0.2473
          21   -0.3133    0.0002    0.1521    0.0004    0.0171    0.0001   -0.1192    0.0001
          22    0.0000    0.0000    0.0000    0.0000    0.0426    0.1245    0.0000    0.0002
          23    0.0000    0.0000    0.0000    0.0000   -0.1366   -0.0177    0.0000    0.0000
          24    0.2877    0.1872    0.4731   -0.5692   -0.0004    0.0001   -0.0879   -0.1396
          25    0.0000    0.0000   -0.0001    0.0000   -0.1426    0.0453    0.0000    0.0000
          26    0.0000    0.0000    0.0000    0.0000    0.0108   -0.1175    0.0000    0.0000
          27    0.2871   -0.1871    0.4694    0.5717    0.0000    0.0002   -0.0885    0.1391
          28    0.0000    0.0000    0.0000    0.0001   -0.0756   -0.1400    0.0000   -0.0001
          29    0.0000    0.0000    0.0000    0.0000    0.0664   -0.0971    0.0000    0.0001
          30   -0.1141   -0.4303    0.3548   -0.2275   -0.0003   -0.0002    0.4930    0.4476
          31    0.0000    0.0000    0.0000    0.0000    0.0821    0.0638    0.0001    0.0000
          32    0.0000   -0.0001   -0.0001   -0.0001   -0.0588    0.1580   -0.0001    0.0001
          33   -0.1137    0.4306    0.3533    0.2306   -0.0001   -0.0001    0.4928   -0.4469


   Root No.       9        10        11        12        13        14        15        16

                 9 A      10 A      11 A      12 A      13 A      14 A      15 A      16 A   

                 985.6    1011.1    1021.5    1036.3    1088.5    1091.0    1206.8    1219.2
  
           1   -0.0001   -0.2026    0.1345    0.0004    0.0218   -0.0105   -0.2140    0.1999
           2   -0.0001   -0.2562   -0.1046   -0.0003   -0.0155   -0.0161   -0.2683   -0.1600
           3    0.3275    0.0001    0.0003   -0.0005   -0.0005    0.0006    0.0000    0.0004
           4    0.0002    0.1965   -0.2430   -0.0007    0.0334   -0.0713    0.3630    0.1841
           5   -0.0001   -0.0438    0.1586    0.0005   -0.1226    0.0387   -0.1086    0.1055
           6   -0.3915   -0.0003    0.0005   -0.3095    0.0005   -0.0007    0.0002   -0.0004
           7   -0.0001   -0.0898   -0.2071   -0.0006    0.1171    0.0725   -0.1864   -0.0626
           8    0.0002    0.1846    0.1989    0.0005    0.0042   -0.0619    0.3311   -0.2020
           9   -0.3911    0.0008   -0.0004    0.3106   -0.0006    0.0009   -0.0001    0.0006
          10    0.0000   -0.1591   -0.0208    0.0000   -0.0310   -0.0350    0.3348   -0.0828
          11    0.0000    0.0439   -0.0301   -0.0001   -0.0051    0.0653   -0.0475    0.1933
          12    0.1903   -0.0005   -0.0013    0.2337    0.0007   -0.0008    0.0000   -0.0006
          13    0.0000    0.0784    0.0238    0.0001   -0.0126    0.0698   -0.1199   -0.2078
          14   -0.0001   -0.1451    0.0292    0.0001    0.0336   -0.0149    0.3156    0.0395
          15    0.1900   -0.0001    0.0009   -0.2342   -0.0001    0.0001   -0.0001    0.0000
          16    0.1307   -0.0768    0.4248    0.4118    0.1535    0.0002   -0.1972   -0.2033
          17    0.1617   -0.1020   -0.3377   -0.3288   -0.1206   -0.0219   -0.2479    0.1611
          18   -0.0673    0.0247    0.0000    0.0001   -0.0006    0.0054    0.1411    0.0005
          19   -0.1308   -0.0763    0.4268   -0.4098    0.1529    0.0005   -0.1972   -0.2028
          20   -0.1619   -0.1019   -0.3391    0.3273   -0.1203   -0.0219   -0.2477    0.1609
          21   -0.0673   -0.0243    0.0003    0.0002    0.0002   -0.0049   -0.1409   -0.0002
          22    0.0002    0.4429   -0.1154   -0.0002   -0.3940   -0.3603   -0.1195   -0.3370
          23    0.0001    0.2363    0.0160    0.0001   -0.2987   -0.2053   -0.1866   -0.2209
          24    0.4061   -0.0004   -0.0007    0.1990    0.0003   -0.0003    0.0001   -0.0002
          25    0.0001    0.1309   -0.0435   -0.0002    0.2193   -0.0873   -0.1558    0.1398
          26    0.0003    0.4858    0.1008    0.0002    0.5061   -0.3238   -0.1595    0.3774
          27    0.4068    0.0001    0.0008   -0.2002   -0.0005    0.0005   -0.0001    0.0004
          28    0.0000   -0.1365    0.0845    0.0003   -0.1230   -0.1932    0.1115    0.1134
          29    0.0001    0.2972   -0.2933   -0.0010    0.3459    0.5859   -0.0282   -0.3691
          30   -0.2100   -0.0003    0.0004   -0.1813    0.0004   -0.0006    0.0000   -0.0004
          31    0.0000    0.3253    0.3015    0.0008   -0.4528    0.5520   -0.0544    0.3837
          32    0.0000   -0.0674   -0.0163   -0.0001    0.0513   -0.0511    0.1026   -0.0279
          33   -0.2101    0.0001   -0.0008    0.1818    0.0000    0.0000   -0.0001    0.0000


   Root No.      17        18        19        20        21        22        23        24

                17 A      18 A      19 A      20 A      21 A      22 A      23 A      24 A   

                1351.0    1363.3    1419.3    1718.0    1782.8    2985.3    3053.7    3133.7
  
           1    0.5515    0.2817   -0.1641   -0.0335   -0.0011   -0.0001    0.1362   -0.0010
           2   -0.4407    0.3516   -0.2050   -0.0418    0.0010   -0.0001    0.1709    0.0008
           3   -0.0002   -0.0002   -0.0003   -0.0002   -0.0001   -0.3033   -0.0001    0.0009
           4   -0.3839   -0.0541    0.2853    0.1822   -0.2084    0.0000    0.0065   -0.0539
           5    0.0798    0.0406    0.0549    0.4723   -0.4216    0.0000   -0.0030    0.0772
           6    0.0002    0.0000    0.0001   -0.0001   -0.0002   -0.0013    0.0000    0.0008
           7   -0.1630    0.0509   -0.0097    0.4207    0.3638    0.0000   -0.0044   -0.0895
           8    0.3566   -0.0425    0.2896    0.2833    0.2962    0.0000    0.0057    0.0362
           9   -0.0003    0.0000   -0.0002    0.0001    0.0002   -0.0012    0.0000   -0.0003
          10    0.0945   -0.2378   -0.4106   -0.1180    0.1553    0.0000    0.0022    0.1663
          11   -0.0717    0.0945    0.3280   -0.4506    0.4763    0.0000   -0.0015    0.0577
          12    0.0002    0.0001    0.0003    0.0001    0.0000   -0.0010    0.0000   -0.0004
          13    0.0912    0.1454    0.4108   -0.4141   -0.4288    0.0000   -0.0020   -0.0195
          14   -0.0765   -0.2111   -0.3271   -0.2159   -0.2570    0.0000    0.0018   -0.1772
          15    0.0000    0.0001    0.0001    0.0001    0.0002   -0.0010    0.0000   -0.0011
          16   -0.1756   -0.2691    0.0509   -0.0081    0.0322    0.2566   -0.2349   -0.0014
          17    0.1413   -0.3370    0.0637   -0.0103   -0.0256    0.3218   -0.2947    0.0009
          18   -0.0009    0.3676   -0.1015    0.0052    0.0000    0.5337   -0.5772    0.0004
          19   -0.1756   -0.2692    0.0507   -0.0081    0.0322   -0.2564   -0.2349   -0.0014
          20    0.1412   -0.3372    0.0637   -0.0103   -0.0257   -0.3215   -0.2946    0.0014
          21    0.0007   -0.3675    0.1012   -0.0053    0.0000    0.5336    0.5776    0.0004
          22   -0.0369   -0.0213   -0.1721   -0.0963    0.0803    0.0000   -0.0085    0.1804
          23    0.0727    0.0142   -0.1473    0.0704   -0.0596    0.0000    0.0173   -0.2764
          24    0.0001    0.0000    0.0000   -0.0001   -0.0001   -0.0013    0.0000    0.0005
          25   -0.0790    0.0183   -0.1050    0.0903    0.0759    0.0000    0.0189    0.3172
          26    0.0196   -0.0175   -0.2004   -0.0783   -0.0647    0.0000   -0.0045   -0.1170
          27   -0.0002    0.0000   -0.0001    0.0000    0.0001   -0.0013    0.0000   -0.0002
          28   -0.0302   -0.0458   -0.0322   -0.0922    0.1255    0.0000   -0.0167   -0.5571
          29    0.1570   -0.0670   -0.1906   -0.0362   -0.0385    0.0000   -0.0058   -0.1816
          30    0.0002    0.0001    0.0002    0.0000    0.0000   -0.0010    0.0000   -0.0002
          31   -0.1597   -0.0557   -0.1782   -0.0148    0.0653    0.0000   -0.0020    0.0539
          32   -0.0055   -0.0595   -0.0737   -0.0982   -0.1136    0.0000   -0.0176    0.5912
          33    0.0000    0.0001    0.0001    0.0001    0.0001   -0.0010    0.0000   -0.0004


   Root No.      25        26        27

                25 A      26 A      27 A   

                3136.1    3148.3    3158.2
  
           1    0.0015    0.0007   -0.0094
           2    0.0019   -0.0006   -0.0118
           3    0.0008   -0.0005   -0.0006
           4    0.0708   -0.0847    0.0790
           5   -0.1042    0.1626   -0.1536
           6    0.0007   -0.0004   -0.0005
           7   -0.1172   -0.1779   -0.1658
           8    0.0456    0.0463    0.0423
           9   -0.0003    0.0002    0.0002
          10   -0.1488   -0.0969    0.1374
          11   -0.0482   -0.0498    0.0574
          12   -0.0003    0.0002    0.0003
          13   -0.0134    0.0273    0.0252
          14   -0.1522    0.1078    0.1461
          15   -0.0009    0.0006    0.0008
          16    0.0002   -0.0019    0.0087
          17    0.0000    0.0018    0.0111
          18    0.0002   -0.0001    0.0200
          19    0.0002   -0.0020    0.0087
          20    0.0004    0.0015    0.0107
          21    0.0004   -0.0003   -0.0206
          22   -0.2383    0.3175   -0.2781
          23    0.3679   -0.4941    0.4336
          24    0.0003   -0.0002   -0.0004
          25    0.4106    0.5533    0.4797
          26   -0.1499   -0.1998   -0.1727
          27   -0.0001    0.0001    0.0001
          28    0.4996    0.3094   -0.4099
          29    0.1588    0.1029   -0.1326
          30   -0.0002    0.0001    0.0001
          31    0.0427   -0.0322   -0.0380
          32    0.5105   -0.3316   -0.4277
          33   -0.0004    0.0002    0.0003


          DESCRIPTION OF VIBRATIONS


 VIBRATION    1    1A       ATOM PAIR        ENERGY CONTRIBUTION    RADIAL
 FREQ.       342.74        C  1 --  H  7          +20.0% (137.0%)    22.5%
 T-DIPOLE    0.2062        C  1 --  H  6          +20.0% (137.0%)    22.5%
 TRAVEL      0.1044        C  1 --  C  2          +14.2% (115.4%)     0.0%
 RED. MASS   0.6377        C  1 --  C  3          +14.2% (115.4%)     0.0%
 EFF. MASS  18.0498

 VIBRATION    2    2A       ATOM PAIR        ENERGY CONTRIBUTION    RADIAL
 FREQ.       478.34        C  4 --  C  5          +21.0% ( 86.8%)     0.0%
 T-DIPOLE    0.0005        C  3 --  C  5          +14.8% ( 72.8%)     0.0%
 TRAVEL      0.1089        C  2 --  C  4          +14.8% ( 72.8%)     0.0%
 RED. MASS   1.0316        C  3 --  C  4          +11.1% ( 63.0%)     0.0%
 EFF. MASS  11.8924        C  2 --  C  5          +11.0% ( 62.9%)     0.0%

 VIBRATION    3    3A       ATOM PAIR        ENERGY CONTRIBUTION    RADIAL
 FREQ.       708.69        C  1 --  H  6          +17.8% ( 59.0%)     9.6%
 T-DIPOLE    0.7237        C  1 --  H  7          +17.8% ( 59.0%)     9.6%
 TRAVEL      0.2041        C  2 --  H  8          +14.0% ( 52.3%)     0.0%
 RED. MASS   0.2054        C  3 --  H  9          +13.7% ( 51.8%)     0.0%
 EFF. MASS   2.2851        C  4 --  H 10          +10.6% ( 45.5%)     0.0%
                           C  5 --  H 11          +10.5% ( 45.3%)     0.1%

 VIBRATION    4    4A       ATOM PAIR        ENERGY CONTRIBUTION    RADIAL
 FREQ.       791.06        C  3 --  H  9          +30.5% ( 66.3%)     0.0%
 T-DIPOLE    0.0024        C  2 --  H  8          +30.3% ( 66.0%)     0.0%
 TRAVEL      0.1978        C  5 --  H 11           +7.6% ( 33.2%)     0.1%
 RED. MASS   0.3151        C  4 --  H 10           +7.5% ( 32.8%)     0.0%
 EFF. MASS   2.1776

 VIBRATION    5    5A       ATOM PAIR        ENERGY CONTRIBUTION    RADIAL
 FREQ.       798.06        C  1 --  C  2          +14.1% (104.5%)     0.1%
 T-DIPOLE    0.0155        C  1 --  C  3          +14.0% (104.5%)     0.1%
 TRAVEL      0.0732        C  2 --  C  5          +10.6% ( 90.6%)    33.1%
 RED. MASS   2.3089        C  3 --  C  4          +10.6% ( 90.6%)    32.9%
 EFF. MASS  15.7684

 VIBRATION    6    6A       ATOM PAIR        ENERGY CONTRIBUTION    RADIAL
 FREQ.       824.96        C  4 --  C  5          +17.6% (123.5%)     0.0%
 T-DIPOLE    0.2242        C  3 --  C  4          +15.1% (114.4%)    92.0%
 TRAVEL      0.0712        C  2 --  C  5          +15.1% (114.4%)    91.9%
 RED. MASS   2.6766        C  3 --  C  5           +9.9% ( 92.8%)     0.2%
 EFF. MASS  16.1235

 VIBRATION    7    7A       ATOM PAIR        ENERGY CONTRIBUTION    RADIAL
 FREQ.       874.66        C  1 --  H  6          +18.6% ( 59.8%)    16.2%
 T-DIPOLE    0.3472        C  1 --  H  7          +18.6% ( 59.8%)    16.2%
 TRAVEL      0.1363        C  4 --  H 10          +14.7% ( 53.2%)     0.0%
 RED. MASS   0.5688        C  5 --  H 11          +14.7% ( 53.2%)     0.1%
 EFF. MASS   4.1502        C  1 --  C  2          +14.4% ( 52.6%)     0.0%
                           C  1 --  C  3          +14.4% ( 52.6%)     0.0%

 VIBRATION    8    8A       ATOM PAIR        ENERGY CONTRIBUTION    RADIAL
 FREQ.       960.69        C  4 --  H 10          +22.0% ( 52.1%)     0.0%
 T-DIPOLE    0.0001        C  5 --  H 11          +21.9% ( 52.0%)     0.1%
 TRAVEL      0.1508        C  1 --  H  7          +14.1% ( 41.7%)     0.0%
 RED. MASS   0.4788        C  1 --  H  6          +14.0% ( 41.6%)     0.0%
 EFF. MASS   3.0856

 VIBRATION    9    9A       ATOM PAIR        ENERGY CONTRIBUTION    RADIAL
 FREQ.       985.64        C  3 --  H  9          +14.8% ( 49.2%)     0.0%
 T-DIPOLE    0.2528        C  2 --  H  8          +14.8% ( 49.1%)     0.0%
 TRAVEL      0.1101        C  1 --  C  2          +13.1% ( 46.4%)     0.0%
 RED. MASS   0.7962        C  1 --  C  3          +13.1% ( 46.3%)     0.0%
 EFF. MASS   5.6442

 VIBRATION   10   10A       ATOM PAIR        ENERGY CONTRIBUTION    RADIAL
 FREQ.      1011.10        C  3 --  H  9          +13.6% ( 53.5%)     8.0%
 T-DIPOLE    0.1634        C  2 --  H  8          +13.5% ( 53.3%)     7.6%
 TRAVEL      0.1151        C  1 --  C  3          +11.7% ( 49.7%)    79.1%
 RED. MASS   0.3486        C  1 --  C  2          +11.6% ( 49.4%)    77.9%
 EFF. MASS   5.0333

 VIBRATION   11   11A       ATOM PAIR        ENERGY CONTRIBUTION    RADIAL
 FREQ.      1021.54        C  1 --  H  7          +14.7% ( 52.0%)     0.0%
 T-DIPOLE    0.1601        C  1 --  H  6          +14.6% ( 51.8%)     0.0%
 TRAVEL      0.1260        C  1 --  C  2          +10.9% ( 44.8%)    67.3%
 RED. MASS   0.3707        C  1 --  C  3          +10.7% ( 44.4%)    66.2%
 EFF. MASS   4.1605

 VIBRATION   12   12A       ATOM PAIR        ENERGY CONTRIBUTION    RADIAL
 FREQ.      1036.35        C  1 --  H  6          +23.0% ( 51.3%)     0.0%
 T-DIPOLE    0.0006        C  1 --  H  7          +22.7% ( 51.1%)     0.0%
 TRAVEL      0.1374        C  3 --  H  9           +7.3% ( 29.0%)     0.0%
 RED. MASS   0.4532        C  2 --  H  8           +7.2% ( 28.8%)     0.0%
 EFF. MASS   3.4469

 VIBRATION   13   13A       ATOM PAIR        ENERGY CONTRIBUTION    RADIAL
 FREQ.      1088.51        C  3 --  H  9          +27.3% ( 55.4%)     2.1%
 T-DIPOLE    0.0381        C  2 --  H  8          +22.5% ( 50.3%)     3.2%
 TRAVEL      0.2053        C  5 --  H 11          +18.1% ( 45.1%)     0.3%
 RED. MASS   0.2237        C  4 --  H 10          +11.9% ( 36.6%)     0.3%
 EFF. MASS   1.4694

 VIBRATION   14   14A       ATOM PAIR        ENERGY CONTRIBUTION    RADIAL
 FREQ.      1091.02        C  4 --  H 10          +35.0% ( 60.0%)     0.0%
 T-DIPOLE    0.0470        C  5 --  H 11          +28.2% ( 53.8%)     0.0%
 TRAVEL      0.2149        C  2 --  H  8          +16.1% ( 40.8%)     1.7%
 RED. MASS   0.2859        C  3 --  H  9          +10.9% ( 33.5%)     4.1%
 EFF. MASS   1.3378

 VIBRATION   15   15A       ATOM PAIR        ENERGY CONTRIBUTION    RADIAL
 FREQ.      1206.81        C  4 --  C  5          +12.2% ( 58.4%)   100.0%
 T-DIPOLE    0.1442        C  1 --  C  3          +11.1% ( 55.6%)    92.9%
 TRAVEL      0.0772        C  1 --  C  2          +11.1% ( 55.5%)    92.9%
 RED. MASS   1.0121        C  3 --  C  4          +10.3% ( 53.5%)    73.1%
 EFF. MASS   9.3801        C  2 --  C  5          +10.2% ( 53.4%)    73.3%

 VIBRATION   16   16A       ATOM PAIR        ENERGY CONTRIBUTION    RADIAL
 FREQ.      1219.25        C  2 --  H  8          +13.7% ( 45.8%)     0.0%
 T-DIPOLE    0.0253        C  3 --  H  9          +13.7% ( 45.7%)     0.0%
 TRAVEL      0.1461        C  4 --  H 10          +12.9% ( 44.4%)     0.0%
 RED. MASS   0.2541        C  5 --  H 11          +12.9% ( 44.4%)     0.1%
 EFF. MASS   2.5901

 VIBRATION   17   17A       ATOM PAIR        ENERGY CONTRIBUTION    RADIAL
 FREQ.      1350.97        C  1 --  C  3          +21.1% ( 74.6%)    76.5%
 T-DIPOLE    0.1585        C  1 --  C  2          +21.1% ( 74.6%)    76.4%
 TRAVEL      0.0701        C  1 --  H  6          +14.2% ( 61.1%)     0.0%
 RED. MASS   3.5616        C  1 --  H  7          +14.2% ( 61.1%)     0.0%
 EFF. MASS  10.1683

 VIBRATION   18   18A       ATOM PAIR        ENERGY CONTRIBUTION    RADIAL
 FREQ.      1363.27        C  1 --  H  6          +24.0% ( 61.1%)     5.7%
 T-DIPOLE    0.3784        C  1 --  H  7          +24.0% ( 61.1%)     5.7%
 TRAVEL      0.1012        C  1 --  C  2          +10.7% ( 40.9%)    53.8%
 RED. MASS   0.8067        C  1 --  C  3          +10.7% ( 40.8%)    53.1%
 EFF. MASS   4.8270

 VIBRATION   19   19A       ATOM PAIR        ENERGY CONTRIBUTION    RADIAL
 FREQ.      1419.33        C  4 --  C  5          +22.3% ( 75.8%)   100.0%
 T-DIPOLE    0.2193        C  3 --  C  4           +9.9% ( 50.7%)   100.0%
 TRAVEL      0.0699        C  2 --  C  5           +9.9% ( 50.7%)   100.0%
 RED. MASS   2.0651        C  2 --  C  4           +9.6% ( 49.9%)     0.1%
 EFF. MASS   9.7111

 VIBRATION   20   20A       ATOM PAIR        ENERGY CONTRIBUTION    RADIAL
 FREQ.      1717.98        C  3 --  C  5          +18.3% ( 73.0%)    99.9%
 T-DIPOLE    0.5530        C  2 --  C  4          +18.2% ( 72.8%)    99.9%
 TRAVEL      0.0571        C  2 --  C  5          +10.7% ( 55.9%)    27.3%
 RED. MASS   2.7209        C  3 --  C  4          +10.7% ( 55.9%)    27.4%
 EFF. MASS  12.0275

 VIBRATION   21   21A       ATOM PAIR        ENERGY CONTRIBUTION    RADIAL
 FREQ.      1782.75        C  2 --  C  4          +17.9% ( 70.0%)    99.8%
 T-DIPOLE    0.2907        C  3 --  C  5          +17.8% ( 69.8%)    99.8%
 TRAVEL      0.0567        C  4 --  C  5          +12.2% ( 57.8%)     0.0%
 RED. MASS   2.6775        C  2 --  C  5          +10.9% ( 54.6%)    66.0%
 EFF. MASS  11.7688        C  3 --  C  4          +10.9% ( 54.6%)    65.3%

 VIBRATION   22   22A       ATOM PAIR        ENERGY CONTRIBUTION    RADIAL
 FREQ.      2985.33        C  1 --  H  6          +49.0% ( 72.5%)    96.8%
 T-DIPOLE    0.1593        C  1 --  H  7          +48.9% ( 72.4%)    96.8%
 TRAVEL      0.1215        C  1 --  C  3           +1.1% ( 10.7%)     0.0%
 RED. MASS   0.5171        C  1 --  C  2           +1.1% ( 10.7%)     0.0%
 EFF. MASS   1.5313

 VIBRATION   23   23A       ATOM PAIR        ENERGY CONTRIBUTION    RADIAL
 FREQ.      3053.66        C  1 --  H  7          +49.2% ( 69.4%)    97.3%
 T-DIPOLE    0.2811        C  1 --  H  6          +49.2% ( 69.3%)    97.3%
 TRAVEL      0.1310        C  1 --  C  2           +0.7% (  8.5%)    35.8%
 RED. MASS   0.4829        C  1 --  C  3           +0.7% (  8.5%)    35.8%
 EFF. MASS   1.2877

 VIBRATION   24   24A       ATOM PAIR        ENERGY CONTRIBUTION    RADIAL
 FREQ.      3133.68        C  5 --  H 11          +36.7% ( 62.1%)    99.9%
 T-DIPOLE    0.0836        C  4 --  H 10          +35.8% ( 61.3%)   100.0%
 TRAVEL      0.1202        C  3 --  H  9          +11.8% ( 35.3%)   100.0%
 RED. MASS   0.2948        C  2 --  H  8          +11.3% ( 34.4%)   100.0%
 EFF. MASS   1.4905

 VIBRATION   25   25A       ATOM PAIR        ENERGY CONTRIBUTION    RADIAL
 FREQ.      3136.14        C  4 --  H 10          +28.7% ( 54.8%)   100.0%
 T-DIPOLE    0.5122        C  5 --  H 11          +27.4% ( 53.5%)    99.9%
 TRAVEL      0.1207        C  2 --  H  8          +20.0% ( 45.7%)   100.0%
 RED. MASS   0.2393        C  3 --  H  9          +19.9% ( 45.6%)   100.0%
 EFF. MASS   1.4755

 VIBRATION   26   26A       ATOM PAIR        ENERGY CONTRIBUTION    RADIAL
 FREQ.      3148.34        C  3 --  H  9          +35.9% ( 61.6%)   100.0%
 T-DIPOLE    0.5763        C  2 --  H  8          +35.8% ( 61.5%)   100.0%
 TRAVEL      0.1161        C  5 --  H 11          +11.6% ( 35.0%)    99.8%
 RED. MASS   0.2953        C  4 --  H 10          +11.1% ( 34.3%)    99.8%
 EFF. MASS   1.5894

 VIBRATION   27   27A       ATOM PAIR        ENERGY CONTRIBUTION    RADIAL
 FREQ.      3158.19        C  2 --  H  8          +27.6% ( 54.1%)    99.9%
 T-DIPOLE    0.1394        C  3 --  H  9          +27.1% ( 53.6%)    99.9%
 TRAVEL      0.1121        C  4 --  H 10          +19.4% ( 45.3%)   100.0%
 RED. MASS   0.2408        C  5 --  H 11          +19.2% ( 45.1%)    99.9%
 EFF. MASS   1.6984

 SYMMETRY NUMBER FOR POINT-GROUP C1  =  1


          SYSTEM IS A GROUND STATE


    NULL



          MOLECULE IS NOT LINEAR

          THERE ARE 27 GENUINE VIBRATIONS IN THIS SYSTEM
          THIS THERMODYNAMICS CALCULATION IS LIMITED TO
          MOLECULES WHICH HAVE NO INTERNAL ROTATIONS




                    CALCULATED THERMODYNAMIC PROPERTIES
                                          *
   TEMP. (K)   PARTITION FUNCTION   H.O.F.    ENTHALPY  HEAT CAPACITY ENTROPY
                                   KCAL/MOL   CAL/MOLE    CAL/K/MOL  CAL/K/MOL


 298.00  VIB.     0.1628D+01                   817.4430     9.4075     3.7119
         ROT.     0.5033D+05                   888.2813     2.9808    24.4949
         INT.     0.8195D+05                  1705.7243    12.3883    28.2068
         TRA.     0.5196D+27                  1480.4688     4.9680    38.4818
         TOT.                       31.697    3186.1931    17.3563    66.6886

 200.00  VIB.     0.1154D+01                   189.4978     3.6736     1.2328
         ROT.     0.2767D+05                   596.1620     2.9808    23.3062
         INT.     0.3194D+05                   785.6597     6.6544    24.5391
         TRA.     0.2857D+27                   993.6033     4.9680    36.5007
         TOT.                       30.290    1779.2630    11.6224    61.0397

 210.00  VIB.     0.1184D+01                   228.6866     4.1690     1.4239
         ROT.     0.2977D+05                   625.9700     2.9808    23.4517
         INT.     0.3524D+05                   854.6567     7.1498    24.8756
         TRA.     0.3074D+27                  1043.2834     4.9680    36.7431
         TOT.                       30.409    1897.9401    12.1179    61.6187

 220.00  VIB.     0.1216D+01                   272.9710     4.6923     1.6298
         ROT.     0.3192D+05                   655.7781     2.9808    23.5903
         INT.     0.3883D+05                   928.7491     7.6731    25.2202
         TRA.     0.3296D+27                  1092.9636     4.9680    36.9742
         TOT.                       30.532    2021.7127    12.6411    62.1944

 230.00  VIB.     0.1253D+01                   322.6155     5.2406     1.8504
         ROT.     0.3412D+05                   685.5862     2.9808    23.7228
         INT.     0.4275D+05                  1008.2018     8.2214    25.5733
         TRA.     0.3523D+27                  1142.6437     4.9680    37.1950
         TOT.                       30.662    2150.8455    13.1894    62.7683

 240.00  VIB.     0.1293D+01                   377.8573     5.8112     2.0854
         ROT.     0.3637D+05                   715.3943     2.9808    23.8497
         INT.     0.4704D+05                  1093.2517     8.7920    25.9351
         TRA.     0.3755D+27                  1192.3239     4.9680    37.4065
         TOT.                       30.796    2285.5756    13.7600    63.3416

 250.00  VIB.     0.1338D+01                   438.9039     6.4011     2.3346
         ROT.     0.3867D+05                   745.2024     2.9808    23.9714
         INT.     0.5175D+05                  1184.1064     9.3819    26.3060
         TRA.     0.3992D+27                  1242.0041     4.9680    37.6093
         TOT.                       30.937    2426.1104    14.3499    63.9152

 260.00  VIB.     0.1388D+01                   505.9326     7.0071     2.5974
         ROT.     0.4101D+05                   775.0105     2.9808    24.0883
         INT.     0.5693D+05                  1280.9431     9.9879    26.6857
         TRA.     0.4234D+27                  1291.6842     4.9680    37.8041
         TOT.                       31.083    2572.6273    14.9560    64.4898

 270.00  VIB.     0.1443D+01                   579.0907     7.6265     2.8734
         ROT.     0.4340D+05                   804.8186     2.9808    24.2008
         INT.     0.6263D+05                  1383.9093    10.6073    27.0742
         TRA.     0.4481D+27                  1341.3644     4.9680    37.9916
         TOT.                       31.236    2725.2737    15.5753    65.0658

 280.00  VIB.     0.1503D+01                   658.4964     8.2562     3.1621
         ROT.     0.4584D+05                   834.6267     2.9808    24.3092
         INT.     0.6892D+05                  1493.1231    11.2370    27.4713
         TRA.     0.4732D+27                  1391.0445     4.9680    38.1723
         TOT.                       31.395    2884.1677    16.2050    65.6436

 290.00  VIB.     0.1570D+01                   744.2403     8.8937     3.4629
         ROT.     0.4831D+05                   864.4348     2.9808    24.4138
         INT.     0.7586D+05                  1608.6751    11.8745    27.8767
         TRA.     0.4988D+27                  1440.7247     4.9680    38.3466
         TOT.                       31.560    3049.3999    16.8425    66.2234

 300.00  VIB.     0.1644D+01                   836.3868     9.5363     3.7753
         ROT.     0.5083D+05                   894.2429     2.9808    24.5149
         INT.     0.8355D+05                  1730.6297    12.5171    28.2901
         TRA.     0.5248D+27                  1490.4049     4.9680    38.5150
         TOT.                       31.732    3221.0346    17.4851    66.8052

 310.00  VIB.     0.1724D+01                   934.9760    10.1818     4.0985
         ROT.     0.5340D+05                   924.0510     2.9808    24.6126
         INT.     0.9206D+05                  1859.0270    13.1627    28.7111
         TRA.     0.5513D+27                  1540.0850     4.9680    38.6779
         TOT.                       31.910    3399.1121    18.1307    67.3890

 320.00  VIB.     0.1813D+01                  1040.0262    10.8282     4.4319
         ROT.     0.5600D+05                   953.8591     2.9808    24.7072
         INT.     0.1015D+06                  1993.8854    13.8090    29.1392
         TRA.     0.5782D+27                  1589.7652     4.9680    38.8357
         TOT.                       32.094    3583.6506    18.7770    67.9749

 330.00  VIB.     0.1910D+01                  1151.5358    11.4734     4.7750
         ROT.     0.5865D+05                   983.6672     2.9808    24.7990
         INT.     0.1120D+06                  2135.2030    14.4542    29.5740
         TRA.     0.6055D+27                  1639.4454     4.9680    38.9885
         TOT.                       32.285    3774.6483    19.4222    68.5625

 340.00  VIB.     0.2016D+01                  1269.4850    12.1158     5.1271
         ROT.     0.6133D+05                  1013.4753     2.9808    24.8879
         INT.     0.1237D+06                  2282.9603    15.0967    30.0150
         TRA.     0.6332D+27                  1689.1255     4.9680    39.1369
         TOT.                       32.483    3972.0858    20.0647    69.1519

 350.00  VIB.     0.2133D+01                  1393.8385    12.7540     5.4875
         ROT.     0.6406D+05                  1043.2834     2.9808    24.9743
         INT.     0.1366D+06                  2437.1220    15.7349    30.4619
         TRA.     0.6613D+27                  1738.8057     4.9680    39.2809
         TOT.                       32.687    4175.9276    20.7029    69.7427

 360.00  VIB.     0.2261D+01                  1524.5473    13.3867     5.8557
         ROT.     0.6682D+05                  1073.0915     2.9808    25.0583
         INT.     0.1511D+06                  2597.6389    16.3675    30.9140
         TRA.     0.6899D+27                  1788.4859     4.9680    39.4208
         TOT.                       32.897    4386.1247    21.3355    70.3348

 370.00  VIB.     0.2401D+01                  1661.5503    14.0127     6.2310
         ROT.     0.6963D+05                  1102.8996     2.9808    25.1400
         INT.     0.1672D+06                  2764.4499    16.9935    31.3710
         TRA.     0.7188D+27                  1838.1660     4.9680    39.5569
         TOT.                       33.113    4602.6159    21.9615    70.9280

 380.00  VIB.     0.2554D+01                  1804.7761    14.6311     6.6130
         ROT.     0.7247D+05                  1132.7077     2.9808    25.2195
         INT.     0.1851D+06                  2937.4838    17.6119    31.8324
         TRA.     0.7482D+27                  1887.8462     4.9680    39.6894
         TOT.                       33.336    4825.3300    22.5800    71.5219

 390.00  VIB.     0.2722D+01                  1954.1450    15.2412     7.0009
         ROT.     0.7535D+05                  1162.5158     2.9808    25.2969
         INT.     0.2051D+06                  3116.6608    18.2220    32.2978
         TRA.     0.7779D+27                  1937.5263     4.9680    39.8185
         TOT.                       33.565    5054.1871    23.1900    72.1163

 400.00  VIB.     0.2907D+01                  2109.5698    15.8422     7.3944
         ROT.     0.7827D+05                  1192.3239     2.9808    25.3724
         INT.     0.2275D+06                  3301.8937    18.8230    32.7668
         TRA.     0.8080D+27                  1987.2065     4.9680    39.9443
         TOT.                       33.800    5289.1002    23.7911    72.7110

   *: NOTE: HEATS OF FORMATION ARE RELATIVE TO THE
            ELEMENTS IN THEIR STANDARD STATE AT 298K
              (=  Standard Enthalpy of Formation).

            Hvib:  Zero-point energy is not included.
                   frequencies of less than zero cm-1 are not included.
            Hrot = (3/2)RT
            Htra = (3/2)RT + pV = (5/2)RT

            Heat capacity is Cp, not Cv

           For more information, see: HTTP://OpenMOPAC.net/Manual/thermochemistry.html


           FORCE CONSTANT IN CARTESIAN COORDINATES (Millidynes/A)

    ATOM   CHEMICAL       X               Y               Z
   NUMBER   SYMBOL  FORCE CONSTANT  FORCE CONSTANT  FORCE CONSTANT

      1       C        8.615871        9.152235        7.788055
      2       C        9.310706       15.091696        2.329726
      3       C       14.887392        9.507549        2.329826
      4       C       12.481772       12.635095        2.204216
      5       C       11.525293       13.589879        2.204295
      6       H        1.189237        1.523659        3.556475
      7       H        1.188482        1.522517        3.558203
      8       H        2.087270        4.042807        0.331956
      9       H        4.881833        1.247510        0.332647
     10       H        4.962467        1.146822        0.349500
     11       H        0.736641        5.371928        0.349453



 TOTAL CPU TIME:             0.32 SECONDS

 == MOPAC DONE ==
