 *******************************************************************************
 ** Site#: 14399           For non-commercial use only        Version 13.159M **
 *******************************************************************************
 ** Cite this work as: MOPAC2012, James J. P. Stewart, Stewart Computational  **
 ** Chemistry, Version 13.159M web: HTTP://OpenMOPAC.net  Days remaining:   6 **
 *******************************************************************************
 **                                                                           **
 **                                MOPAC2012                                  **
 **                                                                           **
 *******************************************************************************

                            PM3 CALCULATION RESULTS


 *******************************************************************************
 *  CALCULATION DONE:                                Mon Jun  2 14:10:44 2014  *
 *  PM3      - The PM3 Hamiltonian to be used
 *  PRECISE  - CRITERIA TO BE INCREASED BY 100 TIMES
 *  NOSYM    - POINT-GROUP SYMMETRY SET TO C1
 *  T=       - A TIME OF 172800.0 SECONDS REQUESTED
 *  DUMP=N   - RESTART FILE WRITTEN EVERY  7200.000 SECONDS
 *******************************************************************************
pm3  precise nosym
 InChI=1S/C7H12/c1-3-6-5-7(6)4-2/h3,6-7H,1,4-5H2,2H3

   ATOM   CHEMICAL          X               Y               Z
  NUMBER   SYMBOL      (ANGSTROMS)     (ANGSTROMS)     (ANGSTROMS)
 
     1       C          0.31610000  *  -0.35020000  *   0.50490000  *
     2       C         -0.81820000  *  -0.79040000  *  -0.55930000  *
     3       C         -0.29630000  *  -1.68620000  *   0.48540000  *
     4       C          1.73250000  *  -0.21740000  *  -0.05670000  *
     5       C          1.97910000  *   1.19160000  *  -0.57950000  *
     6       C         -2.15240000  *  -0.15510000  *  -0.30770000  *
     7       C         -2.34680000  *   1.15210000  *  -0.49050000  *
     8       H         -0.00190000  *   0.30750000  *   1.34750000  *
     9       H         -0.46180000  *  -0.92560000  *  -1.60630000  *
    10       H          2.45440000  *  -0.43180000  *   0.76410000  *
    11       H          1.94260000  *  -0.94320000  *  -0.87730000  *
    12       H          0.33000000  *  -2.52090000  *   0.09480000  *
    13       H         -0.97320000  *  -1.89250000  *   1.34680000  *
    14       H          1.28300000  *   1.42790000  *  -1.41670000  *
    15       H          1.84280000  *   1.94610000  *   0.22870000  *
    16       H          3.02210000  *   1.27690000  *  -0.96020000  *
    17       H         -2.98720000  *  -0.78150000  *   0.00290000  *
    18       H         -1.53690000  *   1.80430000  *  -0.81450000  *
    19       H         -3.32820000  *   1.58830000  *  -0.31470000  *
 


          CARTESIAN COORDINATES 

    NO.       ATOM         X         Y         Z

     1         C        0.3161   -0.3502    0.5049
     2         C       -0.8182   -0.7904   -0.5593
     3         C       -0.2963   -1.6862    0.4854
     4         C        1.7325   -0.2174   -0.0567
     5         C        1.9791    1.1916   -0.5795
     6         C       -2.1524   -0.1551   -0.3077
     7         C       -2.3468    1.1521   -0.4905
     8         H       -0.0019    0.3075    1.3475
     9         H       -0.4618   -0.9256   -1.6063
    10         H        2.4544   -0.4318    0.7641
    11         H        1.9426   -0.9432   -0.8773
    12         H        0.3300   -2.5209    0.0948
    13         H       -0.9732   -1.8925    1.3468
    14         H        1.2830    1.4279   -1.4167
    15         H        1.8428    1.9461    0.2287
    16         H        3.0221    1.2769   -0.9602
    17         H       -2.9872   -0.7815    0.0029
    18         H       -1.5369    1.8043   -0.8145
    19         H       -3.3282    1.5883   -0.3147

  H: (PM3): J. J. P. STEWART, J. COMP. CHEM. 10, 209 (1989).
  C: (PM3): J. J. P. STEWART, J. COMP. CHEM. 10, 209 (1989).

           Empirical Formula: C7 H12  =    19 atoms



      MOLECULAR POINT GROUP   :   C1  


      RHF CALCULATION, NO. OF DOUBLY OCCUPIED LEVELS =   20

      Geometry optimization using EF

          DIAGONAL MATRIX USED AS START HESSIAN

 CYCLE:     1 TIME:   0.006 TIME LEFT:  2.00D  GRAD.:   103.256 HEAT: 31.18817
 CYCLE:     2 TIME:   0.009 TIME LEFT:  2.00D  GRAD.:    79.097 HEAT: 26.62616
 CYCLE:     3 TIME:   0.005 TIME LEFT:  2.00D  GRAD.:   120.623 HEAT: 26.54621
 CYCLE:     4 TIME:   0.008 TIME LEFT:  2.00D  GRAD.:    95.266 HEAT: 24.89447
 CYCLE:     5 TIME:   0.005 TIME LEFT:  2.00D  GRAD.:    44.519 HEAT: 23.06531
 CYCLE:     6 TIME:   0.008 TIME LEFT:  2.00D  GRAD.:    47.397 HEAT: 22.80292
 CYCLE:     7 TIME:   0.005 TIME LEFT:  2.00D  GRAD.:    39.828 HEAT: 22.25936
 CYCLE:     8 TIME:   0.008 TIME LEFT:  2.00D  GRAD.:    22.875 HEAT: 21.87454
 CYCLE:     9 TIME:   0.008 TIME LEFT:  2.00D  GRAD.:    27.914 HEAT: 21.81078
 CYCLE:    10 TIME:   0.005 TIME LEFT:  2.00D  GRAD.:    21.101 HEAT: 21.67670
 CYCLE:    11 TIME:   0.005 TIME LEFT:  2.00D  GRAD.:    20.631 HEAT: 21.62859
 CYCLE:    12 TIME:   0.005 TIME LEFT:  2.00D  GRAD.:    14.282 HEAT: 21.54032
 CYCLE:    13 TIME:   0.008 TIME LEFT:  2.00D  GRAD.:     9.284 HEAT: 21.48728
 CYCLE:    14 TIME:   0.004 TIME LEFT:  2.00D  GRAD.:     7.082 HEAT: 21.45922
 CYCLE:    15 TIME:   0.004 TIME LEFT:  2.00D  GRAD.:    10.457 HEAT: 21.45598
 CYCLE:    16 TIME:   0.004 TIME LEFT:  2.00D  GRAD.:     8.615 HEAT: 21.43562
 CYCLE:    17 TIME:   0.004 TIME LEFT:  2.00D  GRAD.:     6.937 HEAT: 21.41914
 CYCLE:    18 TIME:   0.004 TIME LEFT:  2.00D  GRAD.:     6.477 HEAT: 21.40855
 CYCLE:    19 TIME:   0.004 TIME LEFT:  2.00D  GRAD.:     5.039 HEAT: 21.39462
 CYCLE:    20 TIME:   0.004 TIME LEFT:  2.00D  GRAD.:     3.388 HEAT: 21.38228
 CYCLE:    21 TIME:   0.004 TIME LEFT:  2.00D  GRAD.:     2.689 HEAT: 21.37198
 CYCLE:    22 TIME:   0.004 TIME LEFT:  2.00D  GRAD.:     2.954 HEAT: 21.36386
 CYCLE:    23 TIME:   0.004 TIME LEFT:  2.00D  GRAD.:     2.658 HEAT: 21.35806
 CYCLE:    24 TIME:   0.004 TIME LEFT:  2.00D  GRAD.:     2.005 HEAT: 21.35249
 CYCLE:    25 TIME:   0.004 TIME LEFT:  2.00D  GRAD.:     1.877 HEAT: 21.34673
 CYCLE:    26 TIME:   0.004 TIME LEFT:  2.00D  GRAD.:     1.373 HEAT: 21.34405
 CYCLE:    27 TIME:   0.004 TIME LEFT:  2.00D  GRAD.:     0.953 HEAT: 21.34269
 CYCLE:    28 TIME:   0.004 TIME LEFT:  2.00D  GRAD.:     0.854 HEAT: 21.34168
 CYCLE:    29 TIME:   0.004 TIME LEFT:  2.00D  GRAD.:     0.912 HEAT: 21.34073
 CYCLE:    30 TIME:   0.004 TIME LEFT:  2.00D  GRAD.:     0.957 HEAT: 21.33997
 CYCLE:    31 TIME:   0.004 TIME LEFT:  2.00D  GRAD.:     0.908 HEAT: 21.33888
 CYCLE:    32 TIME:   0.004 TIME LEFT:  2.00D  GRAD.:     0.795 HEAT: 21.33702
 CYCLE:    33 TIME:   0.005 TIME LEFT:  2.00D  GRAD.:     0.502 HEAT: 21.33626
 CYCLE:    34 TIME:   0.004 TIME LEFT:  2.00D  GRAD.:     0.412 HEAT: 21.33588
 CYCLE:    35 TIME:   0.005 TIME LEFT:  2.00D  GRAD.:     0.401 HEAT: 21.33560
 CYCLE:    36 TIME:   0.004 TIME LEFT:  2.00D  GRAD.:     0.331 HEAT: 21.33533
 CYCLE:    37 TIME:   0.004 TIME LEFT:  2.00D  GRAD.:     0.269 HEAT: 21.33507
 CYCLE:    38 TIME:   0.004 TIME LEFT:  2.00D  GRAD.:     0.263 HEAT: 21.33491
 CYCLE:    39 TIME:   0.005 TIME LEFT:  2.00D  GRAD.:     0.292 HEAT: 21.33471
 CYCLE:    40 TIME:   0.005 TIME LEFT:  2.00D  GRAD.:     0.359 HEAT: 21.33441
 CYCLE:    41 TIME:   0.004 TIME LEFT:  2.00D  GRAD.:     0.405 HEAT: 21.33399
 CYCLE:    42 TIME:   0.004 TIME LEFT:  2.00D  GRAD.:     0.466 HEAT: 21.33345
 CYCLE:    43 TIME:   0.004 TIME LEFT:  2.00D  GRAD.:     0.489 HEAT: 21.33290
 CYCLE:    44 TIME:   0.004 TIME LEFT:  2.00D  GRAD.:     0.528 HEAT: 21.33212
 CYCLE:    45 TIME:   0.005 TIME LEFT:  2.00D  GRAD.:     0.562 HEAT: 21.33122
 CYCLE:    46 TIME:   0.005 TIME LEFT:  2.00D  GRAD.:     0.654 HEAT: 21.33008
 CYCLE:    47 TIME:   0.004 TIME LEFT:  2.00D  GRAD.:     0.540 HEAT: 21.32936
 CYCLE:    48 TIME:   0.005 TIME LEFT:  2.00D  GRAD.:     0.453 HEAT: 21.32842
 CYCLE:    49 TIME:   0.004 TIME LEFT:  2.00D  GRAD.:     0.285 HEAT: 21.32818
 CYCLE:    50 TIME:   0.004 TIME LEFT:  2.00D  GRAD.:     0.187 HEAT: 21.32798
 CYCLE:    51 TIME:   0.004 TIME LEFT:  2.00D  GRAD.:     0.122 HEAT: 21.32793
 CYCLE:    52 TIME:   0.004 TIME LEFT:  2.00D  GRAD.:     0.108 HEAT: 21.32789
 CYCLE:    53 TIME:   0.004 TIME LEFT:  2.00D  GRAD.:     0.188 HEAT: 21.32786
 CYCLE:    54 TIME:   0.004 TIME LEFT:  2.00D  GRAD.:     0.122 HEAT: 21.32780
 CYCLE:    55 TIME:   0.004 TIME LEFT:  2.00D  GRAD.:     0.119 HEAT: 21.32773
 CYCLE:    56 TIME:   0.004 TIME LEFT:  2.00D  GRAD.:     0.188 HEAT: 21.32764
 CYCLE:    57 TIME:   0.004 TIME LEFT:  2.00D  GRAD.:     0.224 HEAT: 21.32753
 CYCLE:    58 TIME:   0.004 TIME LEFT:  2.00D  GRAD.:     0.293 HEAT: 21.32717
 CYCLE:    59 TIME:   0.005 TIME LEFT:  2.00D  GRAD.:     0.556 HEAT: 21.32698
 CYCLE:    60 TIME:   0.005 TIME LEFT:  2.00D  GRAD.:     0.344 HEAT: 21.32655
 CYCLE:    61 TIME:   0.004 TIME LEFT:  2.00D  GRAD.:     0.305 HEAT: 21.32628
 CYCLE:    62 TIME:   0.005 TIME LEFT:  2.00D  GRAD.:     0.354 HEAT: 21.32565
 CYCLE:    63 TIME:   0.005 TIME LEFT:  2.00D  GRAD.:     0.300 HEAT: 21.32531
 CYCLE:    64 TIME:   0.005 TIME LEFT:  2.00D  GRAD.:     0.554 HEAT: 21.32475
 CYCLE:    65 TIME:   0.005 TIME LEFT:  2.00D  GRAD.:     0.206 HEAT: 21.32454
 CYCLE:    66 TIME:   0.004 TIME LEFT:  2.00D  GRAD.:     0.194 HEAT: 21.32441
 CYCLE:    67 TIME:   0.004 TIME LEFT:  2.00D  GRAD.:     0.298 HEAT: 21.32429
 CYCLE:    68 TIME:   0.004 TIME LEFT:  2.00D  GRAD.:     0.193 HEAT: 21.32415
 CYCLE:    69 TIME:   0.004 TIME LEFT:  2.00D  GRAD.:     0.161 HEAT: 21.32401
 CYCLE:    70 TIME:   0.005 TIME LEFT:  2.00D  GRAD.:     0.252 HEAT: 21.32375
 CYCLE:    71 TIME:   0.005 TIME LEFT:  2.00D  GRAD.:     0.392 HEAT: 21.32353
 CYCLE:    72 TIME:   0.004 TIME LEFT:  2.00D  GRAD.:     0.262 HEAT: 21.32327
 CYCLE:    73 TIME:   0.005 TIME LEFT:  2.00D  GRAD.:     0.341 HEAT: 21.32289
 CYCLE:    74 TIME:   0.005 TIME LEFT:  2.00D  GRAD.:     0.290 HEAT: 21.32275
 CYCLE:    75 TIME:   0.004 TIME LEFT:  2.00D  GRAD.:     0.298 HEAT: 21.32244
 CYCLE:    76 TIME:   0.004 TIME LEFT:  2.00D  GRAD.:     0.352 HEAT: 21.32168
 CYCLE:    77 TIME:   0.005 TIME LEFT:  2.00D  GRAD.:     0.432 HEAT: 21.32085
 CYCLE:    78 TIME:   0.005 TIME LEFT:  2.00D  GRAD.:     1.966 HEAT: 21.31985
 CYCLE:    79 TIME:   0.005 TIME LEFT:  2.00D  GRAD.:     0.562 HEAT: 21.31869
 CYCLE:    80 TIME:   0.005 TIME LEFT:  2.00D  GRAD.:     0.546 HEAT: 21.31756
 CYCLE:    81 TIME:   0.005 TIME LEFT:  2.00D  GRAD.:     1.322 HEAT: 21.31493
 CYCLE:    82 TIME:   0.005 TIME LEFT:  2.00D  GRAD.:     0.684 HEAT: 21.31351
 CYCLE:    83 TIME:   0.005 TIME LEFT:  2.00D  GRAD.:     1.215 HEAT: 21.31189
 CYCLE:    84 TIME:   0.005 TIME LEFT:  2.00D  GRAD.:     0.654 HEAT: 21.30980
 CYCLE:    85 TIME:   0.005 TIME LEFT:  2.00D  GRAD.:     1.491 HEAT: 21.30766
 CYCLE:    86 TIME:   0.005 TIME LEFT:  2.00D  GRAD.:     1.748 HEAT: 21.30419
 CYCLE:    87 TIME:   0.004 TIME LEFT:  2.00D  GRAD.:     1.538 HEAT: 21.30200
 CYCLE:    88 TIME:   0.005 TIME LEFT:  2.00D  GRAD.:     3.265 HEAT: 21.30148
 CYCLE:    89 TIME:   0.004 TIME LEFT:  2.00D  GRAD.:     1.576 HEAT: 21.29765
 CYCLE:    90 TIME:   0.005 TIME LEFT:  2.00D  GRAD.:     0.964 HEAT: 21.29539
 CYCLE:    91 TIME:   0.005 TIME LEFT:  2.00D  GRAD.:     1.702 HEAT: 21.29151
 CYCLE:    92 TIME:   0.005 TIME LEFT:  2.00D  GRAD.:     3.294 HEAT: 21.28944
 CYCLE:    93 TIME:   0.005 TIME LEFT:  2.00D  GRAD.:     1.585 HEAT: 21.28620
 CYCLE:    94 TIME:   0.005 TIME LEFT:  2.00D  GRAD.:     1.472 HEAT: 21.28320
 CYCLE:    95 TIME:   0.005 TIME LEFT:  2.00D  GRAD.:     2.535 HEAT: 21.27843
 CYCLE:    96 TIME:   0.005 TIME LEFT:  2.00D  GRAD.:     3.683 HEAT: 21.27409
 CYCLE:    97 TIME:   0.005 TIME LEFT:  2.00D  GRAD.:     2.218 HEAT: 21.26868
 CYCLE:    98 TIME:   0.007 TIME LEFT:  2.00D  GRAD.:     1.936 HEAT: 21.26171
 CYCLE:    99 TIME:   0.005 TIME LEFT:  2.00D  GRAD.:     5.164 HEAT: 21.26066
 CYCLE:   100 TIME:   0.004 TIME LEFT:  2.00D  GRAD.:     2.165 HEAT: 21.25098
 CYCLE:   101 TIME:   0.005 TIME LEFT:  2.00D  GRAD.:     1.734 HEAT: 21.24179
 CYCLE:   102 TIME:   0.005 TIME LEFT:  2.00D  GRAD.:     3.742 HEAT: 21.22399
 CYCLE:   103 TIME:   0.005 TIME LEFT:  2.00D  GRAD.:     5.116 HEAT: 21.21014
 CYCLE:   104 TIME:   0.012 TIME LEFT:  2.00D  GRAD.:     4.985 HEAT: 21.20644
 CYCLE:   105 TIME:   0.004 TIME LEFT:  2.00D  GRAD.:     1.701 HEAT: 21.19183
 CYCLE:   106 TIME:   0.005 TIME LEFT:  2.00D  GRAD.:     1.135 HEAT: 21.18485
 CYCLE:   107 TIME:   0.005 TIME LEFT:  2.00D  GRAD.:     3.735 HEAT: 21.16876
 CYCLE:   108 TIME:   0.005 TIME LEFT:  2.00D  GRAD.:     4.163 HEAT: 21.15949
 CYCLE:   109 TIME:   0.004 TIME LEFT:  2.00D  GRAD.:     1.687 HEAT: 21.14299
 CYCLE:   110 TIME:   0.005 TIME LEFT:  2.00D  GRAD.:     5.367 HEAT: 21.14141
 CYCLE:   111 TIME:   0.004 TIME LEFT:  2.00D  GRAD.:     1.722 HEAT: 21.12966
 CYCLE:   112 TIME:   0.005 TIME LEFT:  2.00D  GRAD.:     1.712 HEAT: 21.12220
 CYCLE:   113 TIME:   0.005 TIME LEFT:  2.00D  GRAD.:     3.299 HEAT: 21.10919
 CYCLE:   114 TIME:   0.004 TIME LEFT:  2.00D  GRAD.:     2.051 HEAT: 21.10120
 CYCLE:   115 TIME:   0.005 TIME LEFT:  2.00D  GRAD.:     1.462 HEAT: 21.09394
 CYCLE:   116 TIME:   0.009 TIME LEFT:  2.00D  GRAD.:     2.948 HEAT: 21.08711
 CYCLE:   117 TIME:   0.005 TIME LEFT:  2.00D  GRAD.:     3.862 HEAT: 21.07567
 CYCLE:   118 TIME:   0.004 TIME LEFT:  2.00D  GRAD.:     2.137 HEAT: 21.06663
 CYCLE:   119 TIME:   0.005 TIME LEFT:  2.00D  GRAD.:     1.071 HEAT: 21.06192
 CYCLE:   120 TIME:   0.005 TIME LEFT:  2.00D  GRAD.:     3.512 HEAT: 21.06399
 CYCLE:   121 TIME:   0.005 TIME LEFT:  2.00D  GRAD.:     1.377 HEAT: 21.05952
 CYCLE:   122 TIME:   0.005 TIME LEFT:  2.00D  GRAD.:     1.107 HEAT: 21.05829
 CYCLE:   123 TIME:   0.005 TIME LEFT:  2.00D  GRAD.:     0.822 HEAT: 21.05671
 CYCLE:   124 TIME:   0.005 TIME LEFT:  2.00D  GRAD.:     0.888 HEAT: 21.05542
 CYCLE:   125 TIME:   0.005 TIME LEFT:  2.00D  GRAD.:     1.002 HEAT: 21.05429
 CYCLE:   126 TIME:   0.005 TIME LEFT:  2.00D  GRAD.:     0.880 HEAT: 21.05293
 CYCLE:   127 TIME:   0.005 TIME LEFT:  2.00D  GRAD.:     0.916 HEAT: 21.05131
 CYCLE:   128 TIME:   0.005 TIME LEFT:  2.00D  GRAD.:     1.571 HEAT: 21.04915
 CYCLE:   129 TIME:   0.005 TIME LEFT:  2.00D  GRAD.:     1.625 HEAT: 21.04750
 CYCLE:   130 TIME:   0.005 TIME LEFT:  2.00D  GRAD.:     1.781 HEAT: 21.04529
 CYCLE:   131 TIME:   0.005 TIME LEFT:  2.00D  GRAD.:     1.846 HEAT: 21.04116
 CYCLE:   132 TIME:   0.005 TIME LEFT:  2.00D  GRAD.:     1.794 HEAT: 21.03428
 CYCLE:   133 TIME:   0.005 TIME LEFT:  2.00D  GRAD.:     2.383 HEAT: 21.02859
 CYCLE:   134 TIME:   0.005 TIME LEFT:  2.00D  GRAD.:     3.452 HEAT: 21.02066
 CYCLE:   135 TIME:   0.004 TIME LEFT:  2.00D  GRAD.:     2.812 HEAT: 21.01233
 CYCLE:   136 TIME:   0.004 TIME LEFT:  2.00D  GRAD.:     2.543 HEAT: 21.00239
 CYCLE:   137 TIME:   0.005 TIME LEFT:  2.00D  GRAD.:     2.519 HEAT: 20.99191
 CYCLE:   138 TIME:   0.005 TIME LEFT:  2.00D  GRAD.:     2.224 HEAT: 20.98070
 CYCLE:   139 TIME:   0.005 TIME LEFT:  2.00D  GRAD.:     2.117 HEAT: 20.97003
 CYCLE:   140 TIME:   0.004 TIME LEFT:  2.00D  GRAD.:     2.287 HEAT: 20.96575
 CYCLE:   141 TIME:   0.005 TIME LEFT:  2.00D  GRAD.:     2.177 HEAT: 20.96213
 CYCLE:   142 TIME:   0.004 TIME LEFT:  2.00D  GRAD.:     1.231 HEAT: 20.95885
 CYCLE:   143 TIME:   0.005 TIME LEFT:  2.00D  GRAD.:     1.108 HEAT: 20.95476
 CYCLE:   144 TIME:   0.005 TIME LEFT:  2.00D  GRAD.:     0.968 HEAT: 20.94867
 CYCLE:   145 TIME:   0.005 TIME LEFT:  2.00D  GRAD.:     1.229 HEAT: 20.94670
 CYCLE:   146 TIME:   0.005 TIME LEFT:  2.00D  GRAD.:     0.941 HEAT: 20.94599
 CYCLE:   147 TIME:   0.004 TIME LEFT:  2.00D  GRAD.:     0.315 HEAT: 20.94555
 CYCLE:   148 TIME:   0.005 TIME LEFT:  2.00D  GRAD.:     0.481 HEAT: 20.94548
 CYCLE:   149 TIME:   0.005 TIME LEFT:  2.00D  GRAD.:     0.214 HEAT: 20.94536
 CYCLE:   150 TIME:   0.005 TIME LEFT:  2.00D  GRAD.:     0.124 HEAT: 20.94532
 CYCLE:   151 TIME:   0.004 TIME LEFT:  2.00D  GRAD.:     0.131 HEAT: 20.94529
 CYCLE:   152 TIME:   0.004 TIME LEFT:  2.00D  GRAD.:     0.109 HEAT: 20.94527
 CYCLE:   153 TIME:   0.004 TIME LEFT:  2.00D  GRAD.:     0.115 HEAT: 20.94526
 CYCLE:   154 TIME:   0.004 TIME LEFT:  2.00D  GRAD.:     0.117 HEAT: 20.94526
 CYCLE:   155 TIME:   0.004 TIME LEFT:  2.00D  GRAD.:     0.084 HEAT: 20.94525
 CYCLE:   156 TIME:   0.004 TIME LEFT:  2.00D  GRAD.:     0.091 HEAT: 20.94525
 CYCLE:   157 TIME:   0.004 TIME LEFT:  2.00D  GRAD.:     0.054 HEAT: 20.94525
 CYCLE:   158 TIME:   0.004 TIME LEFT:  2.00D  GRAD.:     0.066 HEAT: 20.94525
 CYCLE:   159 TIME:   0.004 TIME LEFT:  2.00D  GRAD.:     0.055 HEAT: 20.94525
 CYCLE:   160 TIME:   0.004 TIME LEFT:  2.00D  GRAD.:     0.054 HEAT: 20.94524
 CYCLE:   161 TIME:   0.004 TIME LEFT:  2.00D  GRAD.:     0.044 HEAT: 20.94524

     RMS GRADIENT =  0.04400  IS LESS THAN CUTOFF =  0.05000



 -------------------------------------------------------------------------------
pm3  precise nosym
 InChI=1S/C7H12/c1-3-6-5-7(6)4-2/h3,6-7H,1,4-5H2,2H3



     GEOMETRY OPTIMISED USING EIGENVECTOR FOLLOWING (EF).     
     SCF FIELD WAS ACHIEVED                                   


                              PM3 CALCULATION
                                                       MOPAC2012 (Version: 13.159M)
                                                       Mon Jun  2 14:10:45 2014
                                                       No. of days left =   6




          FINAL HEAT OF FORMATION =         20.94524 KCAL/MOL =      87.63488 KJ/MOL


          TOTAL ENERGY            =      -1013.56678 EV
          ELECTRONIC ENERGY       =      -4784.17340 EV  POINT GROUP:     C1  
          CORE-CORE REPULSION     =       3770.60662 EV
          COSMO AREA              =        159.76 SQUARE ANGSTROMS
          COSMO VOLUME            =        153.70 CUBIC ANGSTROMS

          GRADIENT NORM           =          0.04400
          IONIZATION POTENTIAL    =          9.862444 EV
          HOMO LUMO ENERGIES (EV) =         -9.862  1.027
          NO. OF FILLED LEVELS    =         20
          MOLECULAR WEIGHT        =         96.172

          MOLECULAR DIMENSIONS (Angstroms)

            Atom       Atom       Distance
            H    19    H    16     6.94677
            H    12    H    15     4.35805
            H    18    H    13     3.68739


          SCF CALCULATIONS        =        171
          COMPUTATION TIME        =          0.781 SECONDS




   ATOM   CHEMICAL          X               Y               Z
  NUMBER   SYMBOL      (ANGSTROMS)     (ANGSTROMS)     (ANGSTROMS)
 
     1       C          0.42266877  *  -0.41465150  *   0.47377095  *
     2       C         -0.78372281  *  -0.47939162  *  -0.43775239  *
     3       C         -0.33672127  *  -1.70012249  *   0.32192003  *
     4       C          1.79841409  *  -0.29077608  *  -0.12182208  *
     5       C          2.19112782  *   1.15807408  *  -0.30677418  *
     6       C         -2.02164123  *   0.20346898  *  -0.02242262  *
     7       C         -2.83364454  *   0.79990606  *  -0.88860697  *
     8       H          0.32509627  *   0.14183548  *   1.42519202  *
     9       H         -0.61144770  *  -0.45346628  *  -1.53093553  *
    10       H          2.52146438  *  -0.80266187  *   0.54350782  *
    11       H          1.85274480  *  -0.82587029  *  -1.09131952  *
    12       H          0.10865244  *  -2.53975560  *  -0.22358379  *
    13       H         -0.93858263  *  -2.07630386  *   1.15674619  *
    14       H          1.50133470  *   1.67819696  *  -0.98433228  *
    15       H          2.18643377  *   1.70458966  *   0.64562624  *
    16       H          3.19930091  *   1.24555316  *  -0.73128468  *
    17       H         -2.24377074  *   0.19553322  *   1.05203014  *
    18       H         -2.64749254  *   0.82872911  *  -1.95878626  *
    19       H         -3.74563932  *   1.30307491  *  -0.58271444  *

           Empirical Formula: C7 H12  =    19 atoms



      MOLECULAR POINT GROUP   :   C1  


                  EIGENVALUES  
 -40.60511 -33.81899 -30.84479 -23.62957 -22.24090 -20.31572 -19.90363 -17.05256
 -16.40077 -15.23816 -14.91492 -14.11570 -13.72674 -13.07172 -12.48587 -12.21379
 -12.06671 -11.72538 -11.28197  -9.86244   1.02695   3.01318   3.09372   3.37898
   3.51185   3.67668   3.84821   3.94335   3.98899   4.07167   4.24352   4.47585
   4.53711   4.68611   4.81346   4.92879   5.13783   5.14970   5.68325   5.91441


              NET ATOMIC CHARGES AND DIPOLE CONTRIBUTIONS

  ATOM NO.   TYPE          CHARGE      No. of ELECS.   s-Pop       p-Pop       
    1          C          -0.130670        4.1307     1.17915     2.95152
    2          C          -0.109077        4.1091     1.16738     2.94170
    3          C          -0.145673        4.1457     1.16361     2.98207
    4          C          -0.067437        4.0674     1.15067     2.91677
    5          C          -0.108332        4.1083     1.13760     2.97073
    6          C          -0.107538        4.1075     1.18620     2.92134
    7          C          -0.162222        4.1622     1.18249     2.97973
    8          H           0.097839        0.9022     0.90216
    9          H           0.099951        0.9000     0.90005
   10          H           0.050441        0.9496     0.94956
   11          H           0.049637        0.9504     0.95036
   12          H           0.079478        0.9205     0.92052
   13          H           0.079535        0.9205     0.92046
   14          H           0.041116        0.9589     0.95888
   15          H           0.038402        0.9616     0.96160
   16          H           0.036720        0.9633     0.96328
   17          H           0.097032        0.9030     0.90297
   18          H           0.081752        0.9182     0.91825
   19          H           0.079046        0.9210     0.92095
 DIPOLE           X         Y         Z       TOTAL
 POINT-CHG.     0.262    -0.064     0.068     0.278
 HYBRID        -0.052     0.001    -0.003     0.052
 SUM            0.210    -0.063     0.065     0.229


          ATOMIC ORBITAL ELECTRON POPULATIONS

    Atom      s        px        py        pz   
    1  C   1.17915   0.93353   1.01195   1.00604
    2  C   1.16738   0.95008   1.01245   0.97917
    3  C   1.16361   1.03565   0.91875   1.02767
    4  C   1.15067   0.94767   0.96765   1.00145
    5  C   1.13760   1.00262   0.95780   1.01031
    6  C   1.18620   0.95355   0.98246   0.98532
    7  C   1.18249   0.98958   1.00072   0.98943
    8  H   0.90216
    9  H   0.90005
   10  H   0.94956
   11  H   0.95036
   12  H   0.92052
   13  H   0.92046
   14  H   0.95888
   15  H   0.96160
   16  H   0.96328
   17  H   0.90297
   18  H   0.91825
   19  H   0.92095
 *******************************************************************************
 ** Site#: 14399           For non-commercial use only        Version 13.159M **
 *******************************************************************************
 ** Cite this work as: MOPAC2012, James J. P. Stewart, Stewart Computational  **
 ** Chemistry, Version 13.159M web: HTTP://OpenMOPAC.net  Days remaining:   6 **
 *******************************************************************************
 **                                                                           **
 **                                MOPAC2012                                  **
 **                                                                           **
 *******************************************************************************

                            PM3 CALCULATION RESULTS


 *******************************************************************************
 *  CALCULATION DONE:                                Mon Jun  2 14:10:45 2014  *
 *  PM3      - The PM3 Hamiltonian to be used
 *  OLDGEO   - PREVIOUS GEOMETRY TO BE USED
 *  PRECISE  - CRITERIA TO BE INCREASED BY 100 TIMES
 *  NOSYM    - POINT-GROUP SYMMETRY SET TO C1
 *  T=       - A TIME OF 172800.0 SECONDS REQUESTED
 *  DUMP=N   - RESTART FILE WRITTEN EVERY  7200.000 SECONDS
 *  THERMO   - THERMODYNAMIC QUANTITIES TO BE CALCULATED
 *******************************************************************************
oldgeo thermo nosym precise  pm3

   ATOM   CHEMICAL          X               Y               Z
  NUMBER   SYMBOL      (ANGSTROMS)     (ANGSTROMS)     (ANGSTROMS)
 
     1       C          0.42266877  *  -0.41465150  *   0.47377095  *
     2       C         -0.78372281  *  -0.47939162  *  -0.43775239  *
     3       C         -0.33672127  *  -1.70012249  *   0.32192003  *
     4       C          1.79841409  *  -0.29077608  *  -0.12182208  *
     5       C          2.19112782  *   1.15807408  *  -0.30677418  *
     6       C         -2.02164123  *   0.20346898  *  -0.02242262  *
     7       C         -2.83364454  *   0.79990606  *  -0.88860697  *
     8       H          0.32509627  *   0.14183548  *   1.42519202  *
     9       H         -0.61144770  *  -0.45346628  *  -1.53093553  *
    10       H          2.52146438  *  -0.80266187  *   0.54350782  *
    11       H          1.85274480  *  -0.82587029  *  -1.09131952  *
    12       H          0.10865244  *  -2.53975560  *  -0.22358379  *
    13       H         -0.93858263  *  -2.07630386  *   1.15674619  *
    14       H          1.50133470  *   1.67819696  *  -0.98433228  *
    15       H          2.18643377  *   1.70458966  *   0.64562624  *
    16       H          3.19930091  *   1.24555316  *  -0.73128468  *
    17       H         -2.24377074  *   0.19553322  *   1.05203014  *
    18       H         -2.64749254  *   0.82872911  *  -1.95878626  *
    19       H         -3.74563932  *   1.30307491  *  -0.58271444  *
 


          CARTESIAN COORDINATES 

    NO.       ATOM         X         Y         Z

     1         C        0.4227   -0.4147    0.4738
     2         C       -0.7837   -0.4794   -0.4378
     3         C       -0.3367   -1.7001    0.3219
     4         C        1.7984   -0.2908   -0.1218
     5         C        2.1911    1.1581   -0.3068
     6         C       -2.0216    0.2035   -0.0224
     7         C       -2.8336    0.7999   -0.8886
     8         H        0.3251    0.1418    1.4252
     9         H       -0.6114   -0.4535   -1.5309
    10         H        2.5215   -0.8027    0.5435
    11         H        1.8527   -0.8259   -1.0913
    12         H        0.1087   -2.5398   -0.2236
    13         H       -0.9386   -2.0763    1.1567
    14         H        1.5013    1.6782   -0.9843
    15         H        2.1864    1.7046    0.6456
    16         H        3.1993    1.2456   -0.7313
    17         H       -2.2438    0.1955    1.0520
    18         H       -2.6475    0.8287   -1.9588
    19         H       -3.7456    1.3031   -0.5827

  H: (PM3): J. J. P. STEWART, J. COMP. CHEM. 10, 209 (1989).
  C: (PM3): J. J. P. STEWART, J. COMP. CHEM. 10, 209 (1989).

           Empirical Formula: C7 H12  =    19 atoms



      MOLECULAR POINT GROUP   :   C1  


      RHF CALCULATION, NO. OF DOUBLY OCCUPIED LEVELS =   20



          HEAT OF FORMATION =      20.945240 KCALS/MOLE


          INTERNAL COORDINATE DERIVATIVES

   NUMBER  ATOM       BOND         ANGLE      DIHEDRAL

     1       C      0.001778    -0.000869     0.000258
     2       C     -0.003165    -0.000652     0.004349
     3       C      0.000027     0.000339     0.001672
     4       C      0.002726    -0.005596     0.006435
     5       C      0.003591    -0.010011     0.013490
     6       C      0.009334    -0.011615     0.002910
     7       C     -0.003990     0.020172    -0.009676
     8       H      0.000101     0.001594    -0.000906
     9       H     -0.000922    -0.002141    -0.001170
    10       H     -0.008230     0.002689     0.000396
    11       H      0.003231     0.003110    -0.006769
    12       H      0.003272    -0.000238    -0.001523
    13       H      0.000685     0.002177    -0.000406
    14       H     -0.006332     0.005072    -0.000323
    15       H      0.006152     0.008175    -0.012770
    16       H     -0.000051    -0.001294     0.001450
    17       H     -0.000243    -0.008905    -0.008852
    18       H     -0.010111     0.001205     0.008253
    19       H      0.002146    -0.003210     0.003182


          GRADIENT NORM =   0.04495


          TIME FOR SCF CALCULATION =    0.00

          TIME FOR DERIVATIVES     =    0.00

          MOLECULAR WEIGHT =   96.17



          ROTATIONAL CONSTANTS IN CM(-1)

          A =    0.14839814   B =    0.05176306   C =    0.04193473



           PRINCIPAL MOMENTS OF INERTIA IN UNITS OF 10**(-40)*GRAM-CM**2

          A =      188.6329   B =      540.7867   C =      667.5320


          ORIENTATION OF MOLECULE IN FORCE CALCULATION

    NO.       ATOM         X         Y         Z

     1          C      -0.8395    0.3864    0.0329
     2          C       0.6739    0.3864    0.0329
     3          C      -0.0877    1.6853    0.0329
     4          C      -1.5827   -0.0407   -1.2032
     5          C      -1.8464   -1.5300   -1.2015
     6          C       1.3813   -0.0236    1.2587
     7          C       2.5248   -0.6997    1.2314
     8          H      -1.3586    0.0819    0.9614
     9          H       1.1939    0.0869   -0.8974
    10          H      -2.5379    0.5183   -1.2549
    11          H      -1.0192    0.2443   -2.1145
    12          H      -0.0783    2.3142   -0.8645
    13          H      -0.0947    2.3159    0.9289
    14          H      -0.9107   -2.1039   -1.1767
    15          H      -2.4396   -1.8361   -0.3296
    16          H      -2.3981   -1.8371   -2.0990
    17          H       0.9116    0.2604    2.2087
    18          H       3.0197   -0.9985    0.3113
    19          H       3.0460   -1.0020    2.1344


    FIRST DERIVATIVES WILL BE USED IN THE CALCULATION OF SECOND DERIVATIVES

          ESTIMATED TIME TO COMPLETE CALCULATION =        1.39 SECONDS

    FOR POINT-GROUP C1   THERE ARE   1 UNIQUE SYMMETRY FUNCTIONS.

 STEP:   1 TIME =     0.02 SECS, INTEGRAL =      0.02 TIME LEFT: 172799.97
 STEP:   2 TIME =     0.02 SECS, INTEGRAL =      0.04 TIME LEFT: 172799.95
 STEP:   3 TIME =     0.02 SECS, INTEGRAL =      0.06 TIME LEFT: 172799.93
 STEP:   4 TIME =     0.02 SECS, INTEGRAL =      0.08 TIME LEFT: 172799.91
 STEP:   5 TIME =     0.02 SECS, INTEGRAL =      0.10 TIME LEFT: 172799.89
 STEP:   6 TIME =     0.02 SECS, INTEGRAL =      0.12 TIME LEFT: 172799.87
 STEP:   7 TIME =     0.02 SECS, INTEGRAL =      0.14 TIME LEFT: 172799.85
 STEP:   8 TIME =     0.02 SECS, INTEGRAL =      0.16 TIME LEFT: 172799.83
 STEP:   9 TIME =     0.02 SECS, INTEGRAL =      0.18 TIME LEFT: 172799.81
 STEP:  10 TIME =     0.02 SECS, INTEGRAL =      0.20 TIME LEFT: 172799.79
 STEP:  11 TIME =     0.02 SECS, INTEGRAL =      0.22 TIME LEFT: 172799.78
 STEP:  12 TIME =     0.02 SECS, INTEGRAL =      0.24 TIME LEFT: 172799.76
 STEP:  13 TIME =     0.02 SECS, INTEGRAL =      0.26 TIME LEFT: 172799.74
 STEP:  14 TIME =     0.02 SECS, INTEGRAL =      0.28 TIME LEFT: 172799.72
 STEP:  15 TIME =     0.02 SECS, INTEGRAL =      0.30 TIME LEFT: 172799.70
 STEP:  16 TIME =     0.02 SECS, INTEGRAL =      0.32 TIME LEFT: 172799.68
 STEP:  17 TIME =     0.02 SECS, INTEGRAL =      0.34 TIME LEFT: 172799.66
 STEP:  18 TIME =     0.02 SECS, INTEGRAL =      0.36 TIME LEFT: 172799.64
 STEP:  19 TIME =     0.02 SECS, INTEGRAL =      0.38 TIME LEFT: 172799.62
 STEP:  20 TIME =     0.02 SECS, INTEGRAL =      0.40 TIME LEFT: 172799.60
 STEP:  21 TIME =     0.02 SECS, INTEGRAL =      0.42 TIME LEFT: 172799.58
 STEP:  22 TIME =     0.02 SECS, INTEGRAL =      0.44 TIME LEFT: 172799.56
 STEP:  23 TIME =     0.02 SECS, INTEGRAL =      0.46 TIME LEFT: 172799.54
 STEP:  24 TIME =     0.02 SECS, INTEGRAL =      0.47 TIME LEFT: 172799.52
 STEP:  25 TIME =     0.02 SECS, INTEGRAL =      0.49 TIME LEFT: 172799.50
 STEP:  26 TIME =     0.02 SECS, INTEGRAL =      0.52 TIME LEFT: 172799.48
 STEP:  27 TIME =     0.02 SECS, INTEGRAL =      0.53 TIME LEFT: 172799.46
 STEP:  28 TIME =     0.02 SECS, INTEGRAL =      0.55 TIME LEFT: 172799.44
 STEP:  29 TIME =     0.02 SECS, INTEGRAL =      0.57 TIME LEFT: 172799.42
 STEP:  30 TIME =     0.02 SECS, INTEGRAL =      0.59 TIME LEFT: 172799.40
 STEP:  31 TIME =     0.02 SECS, INTEGRAL =      0.61 TIME LEFT: 172799.38
 STEP:  32 TIME =     0.02 SECS, INTEGRAL =      0.64 TIME LEFT: 172799.36
 STEP:  33 TIME =     0.02 SECS, INTEGRAL =      0.66 TIME LEFT: 172799.34
 STEP:  34 TIME =     0.02 SECS, INTEGRAL =      0.68 TIME LEFT: 172799.32
 STEP:  35 TIME =     0.02 SECS, INTEGRAL =      0.70 TIME LEFT: 172799.30
 STEP:  36 TIME =     0.02 SECS, INTEGRAL =      0.72 TIME LEFT: 172799.28
 STEP:  37 TIME =     0.02 SECS, INTEGRAL =      0.74 TIME LEFT: 172799.26
 STEP:  38 TIME =     0.02 SECS, INTEGRAL =      0.76 TIME LEFT: 172799.24
 STEP:  39 TIME =     0.02 SECS, INTEGRAL =      0.78 TIME LEFT: 172799.22
 STEP:  40 TIME =     0.02 SECS, INTEGRAL =      0.80 TIME LEFT: 172799.20
 STEP:  41 TIME =     0.02 SECS, INTEGRAL =      0.82 TIME LEFT: 172799.18
 STEP:  42 TIME =     0.02 SECS, INTEGRAL =      0.84 TIME LEFT: 172799.16
 STEP:  43 TIME =     0.02 SECS, INTEGRAL =      0.86 TIME LEFT: 172799.14
 STEP:  44 TIME =     0.02 SECS, INTEGRAL =      0.88 TIME LEFT: 172799.12
 STEP:  45 TIME =     0.02 SECS, INTEGRAL =      0.90 TIME LEFT: 172799.10
 STEP:  46 TIME =     0.02 SECS, INTEGRAL =      0.92 TIME LEFT: 172799.08
 STEP:  47 TIME =     0.02 SECS, INTEGRAL =      0.94 TIME LEFT: 172799.06
 STEP:  48 TIME =     0.02 SECS, INTEGRAL =      0.96 TIME LEFT: 172799.04
 STEP:  49 TIME =     0.02 SECS, INTEGRAL =      0.98 TIME LEFT: 172799.02
 STEP:  50 TIME =     0.02 SECS, INTEGRAL =      1.00 TIME LEFT: 172799.00
 STEP:  51 TIME =     0.02 SECS, INTEGRAL =      1.02 TIME LEFT: 172798.98
 STEP:  52 TIME =     0.02 SECS, INTEGRAL =      1.04 TIME LEFT: 172798.96
 STEP:  53 TIME =     0.02 SECS, INTEGRAL =      1.06 TIME LEFT: 172798.94
 STEP:  54 TIME =     0.02 SECS, INTEGRAL =      1.08 TIME LEFT: 172798.92
 STEP:  55 TIME =     0.02 SECS, INTEGRAL =      1.10 TIME LEFT: 172798.90
 STEP:  56 TIME =     0.02 SECS, INTEGRAL =      1.12 TIME LEFT: 172798.87
 STEP:  57 TIME =     0.02 SECS, INTEGRAL =      1.14 TIME LEFT: 172798.86

(To convert to Hartree/Bohr^2, multiply by (10^(-21) x N x a0^2)/(4.184 x 627.51) = 0.0642)


           FORCE MATRIX IN MILLIDYNES/ANGSTROM


                  C  1       C  2       C  3       C  4       C  5       C  6
 ------------------------------------------------------------------------------
     C    1  15.455072
     C    2   4.421623  15.797597
     C    3   4.962291   4.753848  15.302405
     C    4   4.564262   0.545203   0.544976  14.591070
     C    5   0.689418   0.018905   0.053456   4.456058  14.378939
     C    6   0.610099   5.278813   0.613775   0.047039   0.002239  18.446908
     C    7   0.037957   0.921549   0.039552   0.007102   0.002192  11.014768
     H    8   4.534716   0.442782   0.440646   0.422737   0.026428   0.026640
     H    9   0.441090   4.521986   0.436834   0.022999   0.003850   0.436865
     H   10   0.426438   0.048494   0.013573   4.458686   0.441649   0.009145
     H   11   0.453993   0.025339   0.025831   4.436138   0.437429   0.001437
     H   12   0.464686   0.460974   4.824230   0.023612   0.003735   0.044337
     H   13   0.456003   0.461049   4.828381   0.043616   0.008460   0.027227
     H   14   0.018746   0.003920   0.002950   0.462736   4.737672   0.001136
     H   15   0.023970   0.002298   0.001750   0.464290   4.728273   0.000761
     H   16   0.052828   0.002806   0.009040   0.449380   4.750934   0.000531
     H   17   0.020605   0.440585   0.019271   0.001715   0.000359   4.776924
     H   18   0.010409   0.099316   0.010531   0.001983   0.000611   0.489646
     H   19   0.017281   0.136789   0.017735   0.003236   0.000611   0.460139


                  C  7       H  8       H  9       H 10       H 11       H 12
 ------------------------------------------------------------------------------
     C    7  18.020078
     H    8   0.003489   5.067093
     H    9   0.047036   0.034174   5.049666
     H   10   0.001927   0.024792   0.003499   5.060297
     H   11   0.000756   0.039947   0.020756   0.567577   5.050526
     H   12   0.005975   0.038650   0.021247   0.002475   0.014892   5.430503
     H   13   0.004089   0.021093   0.037942   0.002271   0.001201   0.489285
     H   14   0.000550   0.002195   0.003842   0.048314   0.024517   0.000434
     H   15   0.000271   0.019636   0.000608   0.024119   0.047844   0.000502
     H   16   0.000686   0.001940   0.000565   0.028702   0.030081   0.000880
     H   17   0.453131   0.015076   0.034500   0.000356   0.000633   0.001485
     H   18   5.075785   0.000948   0.028609   0.000476   0.000250   0.001947
     H   19   5.109744   0.001337   0.002110   0.000600   0.000210   0.002780


                  H 13       H 14       H 15       H 16       H 17       H 18
 ------------------------------------------------------------------------------
     H   13   5.434972
     H   14   0.000366   5.473942
     H   15   0.000482   0.577326   5.471738
     H   16   0.001627   0.570843   0.571376   5.488026
     H   17   0.013285   0.000370   0.000310   0.000203   5.147220
     H   18   0.000930   0.000310   0.000174   0.000259   0.118000   5.471598
     H   19   0.001476   0.000193   0.000196   0.000172   0.079364   0.421653


                  H 19
 ------------------
     H   19   5.497310


          HEAT OF FORMATION =      20.945240 KCALS/MOLE

          ZERO POINT ENERGY     106.427 KCAL/MOL


           NORMAL COORDINATE ANALYSIS (Total motion = 1 Angstrom)


   Root No.       1         2         3         4         5         6         7         8

                 1 A       2 A       3 A       4 A       5 A       6 A       7 A       8 A   

                  67.2      78.4     159.6     200.0     261.9     351.1     425.3     462.2
  
           1   -0.0085   -0.0121   -0.0112   -0.0049   -0.0268   -0.0160   -0.0054   -0.0041
           2    0.0215    0.0098    0.0226   -0.0079    0.0110   -0.0041   -0.0083    0.0368
           3    0.0086    0.0044   -0.0074    0.0141    0.0148   -0.0124    0.0539    0.0016
           4   -0.0086   -0.0122   -0.0123   -0.0038   -0.0278   -0.0146   -0.0108   -0.0067
           5    0.0058   -0.0380    0.0044   -0.0142   -0.0217   -0.0288   -0.0070   -0.0007
           6   -0.0047   -0.0006    0.0051    0.0010    0.0368   -0.0233   -0.0321   -0.0147
           7    0.0050    0.0287    0.0032    0.0015    0.0022    0.0004   -0.0119    0.0450
           8    0.0137   -0.0137    0.0137   -0.0114   -0.0052   -0.0180   -0.0051    0.0232
           9   -0.0149   -0.0191    0.0080   -0.0076   -0.0081    0.0335   -0.0119    0.0361
          10   -0.0200   -0.0289    0.0155   -0.0129    0.0238   -0.0046    0.0459    0.0042
          11    0.0049    0.0157   -0.0016    0.0059   -0.0021    0.0184    0.0026   -0.0335
          12    0.0215    0.0124   -0.0146    0.0131   -0.0140   -0.0276    0.0272    0.0157
          13    0.0633    0.0101    0.0213   -0.0023    0.0029    0.0162    0.0099   -0.0178
          14   -0.0100    0.0090   -0.0036    0.0050    0.0023    0.0148    0.0135   -0.0385
          15    0.0042   -0.0128    0.0351   -0.0198   -0.0087    0.0236   -0.0023   -0.0227
          16   -0.0055   -0.0155   -0.0225    0.0168    0.0120    0.0071   -0.0166   -0.0107
          17    0.0068   -0.0289   -0.0347    0.0197    0.0125    0.0086   -0.0018    0.0069
          18   -0.0063    0.0045   -0.0033    0.0008    0.0243   -0.0245   -0.0354   -0.0155
          19   -0.0322    0.0256   -0.0008    0.0052    0.0056    0.0046   -0.0141   -0.0111
          20   -0.0382    0.0404    0.0025   -0.0001    0.0018    0.0043    0.0052    0.0095
          21   -0.0090    0.0129   -0.0253    0.0024   -0.0307    0.0158    0.0042   -0.0016
          22   -0.0031   -0.0190   -0.0269   -0.0018   -0.0645   -0.0230    0.0115   -0.0101
          23    0.0389    0.0392    0.0311   -0.0027    0.0482   -0.0266   -0.0132    0.0625
          24    0.0173    0.0102   -0.0132    0.0165    0.0041   -0.0236    0.0592    0.0068
          25   -0.0204   -0.0257   -0.0121   -0.0156   -0.0448   -0.0279   -0.0459   -0.0261
          26   -0.0113   -0.0713    0.0108   -0.0335   -0.0615   -0.0257   -0.0343   -0.0094
          27   -0.0059    0.0027    0.0024    0.0007    0.0380   -0.0306   -0.0422   -0.0222
          28   -0.0515   -0.0441    0.0167   -0.0167    0.0347   -0.0043    0.0674   -0.0006
          29   -0.0461   -0.0074   -0.0043    0.0007    0.0110    0.0157    0.0322   -0.0437
          30    0.0565    0.0443   -0.0583    0.0272   -0.0705   -0.0477   -0.0367   -0.0062
          31   -0.0598   -0.0559    0.0398   -0.0183    0.0714    0.0064    0.1125    0.0127
          32    0.0508    0.0485   -0.0311    0.0279   -0.0250    0.0054   -0.0158   -0.0440
          33    0.0112    0.0058   -0.0087    0.0162    0.0075   -0.0243    0.0602    0.0173
          34    0.0046    0.0456    0.0222   -0.0066    0.0302   -0.0022   -0.0832    0.0709
          35    0.0021   -0.0282    0.0205   -0.0220   -0.0285    0.0286   -0.0273    0.0751
          36   -0.0231   -0.0291    0.0131   -0.0152   -0.0243    0.0674   -0.0288    0.0752
          37    0.0189    0.0525   -0.0002    0.0155    0.0045    0.0222    0.0539    0.0813
          38    0.0254    0.0006    0.0061   -0.0002    0.0179   -0.0646    0.0163   -0.0283
          39   -0.0230   -0.0291    0.0132   -0.0153   -0.0246    0.0678   -0.0272    0.0751
          40    0.0965    0.0262    0.0221   -0.0020   -0.0047    0.0287   -0.0072   -0.0345
          41    0.0425    0.0335    0.0026    0.0126   -0.0120    0.0348   -0.0152   -0.0654
          42   -0.0285   -0.0482    0.1567    0.1493   -0.0499    0.0295   -0.0227   -0.0395
          43    0.1029    0.0401   -0.0618   -0.1523    0.0342    0.0399    0.0048   -0.0357
          44   -0.0570   -0.0250    0.0394    0.0095    0.0076    0.0378    0.0092   -0.0605
          45    0.0146   -0.0045   -0.0063   -0.1205    0.0143    0.0484   -0.0075   -0.0436
          46    0.0579   -0.0040    0.1102    0.1572   -0.0386    0.0045   -0.0037   -0.0165
          47   -0.0268    0.0134   -0.0535   -0.0069    0.0143   -0.0322    0.0550    0.0122
          48    0.0134   -0.0057   -0.0022   -0.1137    0.0126    0.0477   -0.0084   -0.0425
          49    0.0188   -0.0513   -0.0474    0.0450    0.0670    0.0303   -0.0456   -0.0052
          50    0.0443   -0.0778   -0.1013    0.0684    0.0526    0.0786   -0.0149    0.0342
          51   -0.0055    0.0014    0.0040    0.0002    0.0383   -0.0329   -0.0448   -0.0203
          52   -0.0566    0.0618    0.0210   -0.0220   -0.0615   -0.0055    0.0299   -0.0178
          53   -0.0755    0.0897    0.0698   -0.0487   -0.0318   -0.0781    0.0132   -0.0233
          54   -0.0100    0.0164   -0.0356    0.0036   -0.0565    0.0377    0.0261    0.0058
          55   -0.0317    0.0263   -0.0025    0.0216    0.0676    0.0114   -0.0569   -0.0055
          56   -0.0412    0.0531   -0.0313    0.0304    0.0247    0.0837    0.0053    0.0458
          57   -0.0103    0.0168   -0.0357    0.0032   -0.0592    0.0388    0.0291    0.0071


   Root No.       9        10        11        12        13        14        15        16

                 9 A      10 A      11 A      12 A      13 A      14 A      15 A      16 A   

                 468.6     642.3     813.4     851.9     876.1     926.8     938.0     968.5
  
           1   -0.0341    0.0180    0.0086    0.0038    0.0070    0.0126   -0.0216   -0.0083
           2    0.0333    0.0013   -0.0007   -0.0091    0.0157    0.0037    0.0067    0.0029
           3    0.0039   -0.0038   -0.0079   -0.0095   -0.0181   -0.0070    0.0089   -0.0097
           4   -0.0204    0.0026   -0.0157   -0.0042    0.0077   -0.0124    0.0138    0.0127
           5    0.0203    0.0114   -0.0120   -0.0071   -0.0147   -0.0080    0.0017    0.0021
           6    0.0154    0.0017    0.0064    0.0074   -0.0189    0.0014   -0.0163    0.0087
           7   -0.0295   -0.0140   -0.0092    0.0015   -0.0243   -0.0029    0.0007   -0.0009
           8    0.0265    0.0177    0.0045   -0.0108    0.0022    0.0202   -0.0210   -0.0225
           9   -0.0114   -0.0081   -0.0018   -0.0007   -0.0192    0.0052    0.0028   -0.0076
          10   -0.0083    0.0116    0.0361   -0.0024    0.0037    0.0011   -0.0033   -0.0010
          11   -0.0084   -0.0010   -0.0058    0.0001   -0.0018    0.0008    0.0003   -0.0015
          12   -0.0054    0.0127   -0.0010    0.0216    0.0181   -0.0007    0.0021    0.0043
          13   -0.0062    0.0017    0.0099    0.0005    0.0025   -0.0029    0.0093    0.0073
          14   -0.0107    0.0029    0.0043    0.0089    0.0070   -0.0024    0.0010    0.0064
          15   -0.0098    0.0013    0.0022    0.0083    0.0092    0.0024   -0.0028    0.0110
          16    0.0483   -0.0308   -0.0005   -0.0038    0.0044   -0.0201   -0.0011   -0.0054
          17   -0.0266   -0.0548    0.0024    0.0043   -0.0038   -0.0365   -0.0069   -0.0013
          18   -0.0327   -0.0022   -0.0087   -0.0156    0.0152    0.0023   -0.0022    0.0080
          19    0.0521    0.0041   -0.0022   -0.0071    0.0082   -0.0031    0.0026   -0.0066
          20   -0.0318    0.0037    0.0014    0.0051   -0.0052   -0.0096   -0.0031   -0.0001
          21    0.0380   -0.0001   -0.0043   -0.0114    0.0165    0.0019    0.0177   -0.0236
          22   -0.0565    0.0374   -0.0275   -0.0027   -0.0149    0.0516   -0.0260   -0.0719
          23    0.0699   -0.0129    0.0266    0.0282    0.0738   -0.0707    0.0556    0.0882
          24    0.0022    0.0035   -0.0177    0.0009   -0.0101   -0.0096    0.0223   -0.0177
          25   -0.0476    0.0344   -0.0431    0.0172   -0.0214   -0.0145    0.0599    0.0975
          26    0.0249    0.0645   -0.0469    0.0361   -0.0750   -0.0172    0.1304    0.0679
          27   -0.0021    0.0021    0.0017    0.0037   -0.0148    0.0033   -0.0320    0.0364
          28   -0.0111    0.0114   -0.0153    0.0309    0.0197    0.0150   -0.0396   -0.0131
          29   -0.0168    0.0016   -0.0720    0.0510    0.0235    0.0239   -0.0636   -0.0214
          30   -0.0452    0.0365    0.1515   -0.0165    0.0014    0.0088   -0.0411   -0.0084
          31    0.0154   -0.0033   -0.0884    0.0445    0.0172   -0.0072    0.0219   -0.0034
          32   -0.0209    0.0062    0.1040   -0.0484   -0.0417   -0.0288    0.0502   -0.0086
          33    0.0047    0.0058   -0.0393    0.0330    0.0122   -0.0155    0.0336    0.0003
          34   -0.0114   -0.0079    0.0383    0.1912   -0.0741   -0.0401    0.0526   -0.0958
          35    0.0079   -0.0081    0.0213   -0.0088    0.1035   -0.0069   -0.0393    0.0068
          36   -0.0253   -0.0277    0.0120    0.0034    0.0563   -0.0156   -0.0113    0.0133
          37   -0.0510   -0.0556   -0.0684   -0.1815   -0.0622    0.0260   -0.0300    0.0755
          38    0.0479    0.0428   -0.0158   -0.0161   -0.0988    0.0490    0.0012   -0.0561
          39   -0.0271   -0.0280    0.0126    0.0013    0.0565   -0.0164   -0.0138    0.0184
          40   -0.0066   -0.0072   -0.0575    0.0241    0.0068    0.0101   -0.0330   -0.0136
          41   -0.0114   -0.0114   -0.0995    0.0440    0.0121    0.0172   -0.0637   -0.0269
          42   -0.0158   -0.0039    0.0167   -0.0188   -0.0223   -0.0068    0.0070   -0.0174
          43   -0.0053   -0.0069   -0.0289    0.0049   -0.0070    0.0012   -0.0108   -0.0158
          44   -0.0172   -0.0006    0.0934   -0.0623   -0.0541   -0.0344    0.0638   -0.0228
          45   -0.0119   -0.0059    0.0101   -0.0160   -0.0208   -0.0069    0.0075   -0.0160
          46   -0.0071    0.0004   -0.0316    0.0241    0.0175    0.0088   -0.0204    0.0055
          47   -0.0047    0.0252    0.0478    0.0446    0.0695    0.0023    0.0200    0.0849
          48   -0.0118   -0.0058    0.0123   -0.0187   -0.0226   -0.0066    0.0085   -0.0164
          49    0.0504    0.0135    0.0101    0.0092   -0.0138    0.1685   -0.0056    0.0486
          50   -0.0440    0.0174    0.0119    0.0267    0.0065    0.2720    0.0727    0.0101
          51   -0.0245   -0.0018   -0.0060   -0.0156    0.0025    0.0034   -0.0286    0.0315
          52    0.1293   -0.0953    0.0285    0.0425   -0.0558    0.1089   -0.0490    0.0917
          53   -0.0579   -0.1766    0.0064   -0.0016    0.0352    0.1859    0.0695   -0.0213
          54    0.0897    0.0050    0.0113    0.0189   -0.0334   -0.0015   -0.0359    0.0386
          55   -0.0225    0.1584   -0.0381   -0.0657    0.0805    0.0014    0.0751   -0.0806
          56   -0.0103    0.2770   -0.0078    0.0102   -0.0483   -0.0130   -0.0422    0.0652
          57    0.0910    0.0025    0.0137    0.0245   -0.0407   -0.0017   -0.0390    0.0427


   Root No.      17        18        19        20        21        22        23        24

                17 A      18 A      19 A      20 A      21 A      22 A      23 A      24 A   

                 979.4    1009.8    1025.1    1047.8    1095.6    1120.4    1122.6    1141.5
  
           1   -0.0067    0.0059   -0.0063   -0.0157   -0.0133   -0.0303    0.0051    0.0313
           2    0.0076   -0.0034   -0.0054   -0.0274   -0.0257    0.0382   -0.0240   -0.0409
           3   -0.0183    0.0011    0.0014    0.0006    0.0190    0.0076   -0.0004   -0.0045
           4   -0.0143   -0.0026    0.0036   -0.0365    0.0252    0.0225   -0.0019   -0.0264
           5   -0.0092   -0.0066    0.0126    0.0139    0.0592    0.0046    0.0200   -0.0123
           6   -0.0009    0.0006    0.0018    0.0074    0.0087   -0.0092    0.0082    0.0101
           7   -0.0012   -0.0004    0.0039    0.0008    0.0174   -0.0062    0.0110    0.0207
           8    0.0029   -0.0047   -0.0074    0.0068   -0.0156   -0.0224    0.0005    0.0278
           9    0.0136    0.0155    0.0067   -0.0386   -0.0067   -0.0093   -0.0028   -0.0018
          10    0.0022    0.0178    0.0043    0.0114    0.0018    0.0286   -0.0342   -0.0022
          11    0.0011   -0.0036   -0.0009   -0.0079   -0.0080    0.0382    0.0374    0.0201
          12   -0.0002   -0.0054   -0.0067    0.0043   -0.0182   -0.0112    0.0020   -0.0115
          13    0.0118   -0.0138   -0.0005   -0.0026   -0.0042   -0.0216    0.0350   -0.0120
          14    0.0050   -0.0008    0.0023    0.0069    0.0129   -0.0426   -0.0382   -0.0161
          15    0.0257    0.0002    0.0094    0.0020    0.0146    0.0135   -0.0021    0.0194
          16    0.0049   -0.0007    0.0167    0.0024   -0.0126   -0.0024   -0.0024    0.0034
          17    0.0048   -0.0020    0.0272   -0.0010   -0.0226   -0.0025   -0.0056    0.0036
          18   -0.0021   -0.0101   -0.0066   -0.0028   -0.0091    0.0077   -0.0072   -0.0092
          19    0.0079    0.0031   -0.0284    0.0043    0.0066    0.0017    0.0013   -0.0015
          20    0.0069    0.0068   -0.0481   -0.0035    0.0134    0.0011    0.0027   -0.0019
          21    0.0078    0.0074    0.0057    0.0122    0.0042   -0.0053    0.0039    0.0047
          22    0.0188   -0.1053   -0.0461    0.0028   -0.0826    0.0016   -0.0681   -0.0546
          23   -0.1189    0.1140   -0.0070   -0.0698    0.0043   -0.1151    0.0404    0.0765
          24   -0.0458   -0.0231   -0.0223   -0.0017   -0.0128   -0.0262   -0.0212   -0.0160
          25    0.0027    0.0067   -0.0438    0.0258   -0.1126    0.0413   -0.0485   -0.0078
          26    0.0334    0.0742   -0.0303    0.1377   -0.1202   -0.0193   -0.0231    0.0426
          27   -0.0053   -0.0213   -0.0117    0.0026   -0.0119    0.0104   -0.0050    0.0011
          28   -0.0097    0.0541    0.0062    0.0367   -0.0362    0.0387    0.0852   -0.0485
          29   -0.0183    0.0684    0.0063    0.0410   -0.0704    0.0634    0.2432   -0.0651
          30   -0.0064    0.1050    0.0223    0.0705   -0.0260    0.0667    0.0179   -0.0930
          31   -0.0244   -0.0553   -0.0305    0.0029   -0.0372    0.0176    0.0008    0.0762
          32   -0.0409   -0.0332   -0.0175    0.0148    0.0046    0.1680   -0.0470    0.1864
          33   -0.0308   -0.0589   -0.0334    0.0069   -0.0386    0.0233   -0.0036    0.0868
          34    0.0086   -0.0385    0.0285    0.1140    0.0369    0.0214   -0.0087   -0.0731
          35   -0.0636   -0.0571   -0.0304    0.1166    0.0082   -0.0061    0.0084    0.0400
          36   -0.0366   -0.0237   -0.0100    0.0441    0.0114    0.0018    0.0030    0.0057
          37    0.0519    0.0205    0.0081    0.1562   -0.0009   -0.0371    0.0037   -0.0320
          38    0.0662    0.0453    0.0124   -0.1024   -0.0415   -0.0436   -0.0079    0.0334
          39   -0.0346   -0.0220   -0.0081    0.0438    0.0137    0.0060    0.0034   -0.0065
          40   -0.0228    0.0367    0.0038    0.0170    0.0112    0.0003   -0.0713   -0.0021
          41   -0.0520    0.0776    0.0079    0.0378    0.0369   -0.0112   -0.2087   -0.0018
          42   -0.0411   -0.0001   -0.0131    0.0048   -0.0178   -0.0092    0.0029   -0.0158
          43   -0.0337    0.0140   -0.0074    0.0081   -0.0094   -0.0081   -0.0206   -0.0123
          44   -0.0834   -0.0556   -0.0438   -0.0043   -0.0541   -0.1497    0.0491   -0.1053
          45   -0.0388   -0.0020   -0.0127    0.0050   -0.0142   -0.0148   -0.0073   -0.0126
          46    0.0162    0.0185    0.0107    0.0072    0.0152    0.0097   -0.0252    0.0125
          47    0.1662   -0.0418    0.0434   -0.0044    0.0667   -0.0614    0.0240    0.0202
          48   -0.0361   -0.0045   -0.0125    0.0014   -0.0171    0.0001    0.0120   -0.0090
          49   -0.0202   -0.0258   -0.0602    0.0353    0.0145    0.0033   -0.0002   -0.0149
          50   -0.0246    0.0255   -0.0680   -0.0170    0.0647    0.0095    0.0164   -0.0051
          51   -0.0059   -0.0309   -0.0163    0.0185   -0.0216    0.0067   -0.0126   -0.0157
          52   -0.0480   -0.0449    0.0764   -0.0170   -0.0410    0.0140   -0.0179   -0.0120
          53   -0.0327   -0.0032    0.1757    0.0155   -0.0277   -0.0147    0.0006    0.0160
          54   -0.0102   -0.0159   -0.0110   -0.0061   -0.0082    0.0065   -0.0058   -0.0070
          55    0.0047    0.0084    0.1339    0.0388   -0.0075   -0.0111    0.0061    0.0113
          56   -0.0588   -0.0432    0.1868   -0.0198   -0.0335    0.0042   -0.0095   -0.0045
          57   -0.0127   -0.0136   -0.0100   -0.0125   -0.0041    0.0035   -0.0034   -0.0039


   Root No.      25        26        27        28        29        30        31        32

                25 A      26 A      27 A      28 A      29 A      30 A      31 A      32 A   

                1165.6    1180.6    1198.5    1234.6    1252.8    1283.6    1327.6    1374.3
  
           1   -0.0214    0.0089   -0.0043   -0.0091   -0.0167    0.0203    0.0076   -0.0181
           2    0.0063   -0.0051   -0.0023   -0.0003    0.0021    0.0185   -0.0006   -0.0168
           3    0.0181    0.0307   -0.0269    0.0000   -0.0343   -0.0118   -0.0169   -0.0119
           4   -0.0190    0.0013    0.0005   -0.0125   -0.0062    0.0054   -0.0154   -0.0085
           5   -0.0011   -0.0101    0.0145    0.0100    0.0154   -0.0040    0.0133    0.0095
           6    0.0044   -0.0185   -0.0251    0.0193    0.0134    0.0413    0.0090   -0.0176
           7    0.0694   -0.0150    0.0056    0.0056    0.0092   -0.0105    0.0026    0.0064
           8   -0.0045    0.0025   -0.0090   -0.0047   -0.0188   -0.0192   -0.0134   -0.0006
           9   -0.0167   -0.0008    0.0149    0.0063    0.0084   -0.0089    0.0012    0.0051
          10    0.0041    0.0011    0.0019   -0.0005   -0.0042    0.0067    0.0137    0.0048
          11   -0.0049    0.0146   -0.0094   -0.0038   -0.0248    0.0208    0.0261    0.0156
          12   -0.0059   -0.0360    0.0192   -0.0133   -0.0104    0.0146    0.0178   -0.0016
          13    0.0023   -0.0004   -0.0013    0.0003    0.0006   -0.0030   -0.0028    0.0010
          14    0.0055   -0.0090    0.0029   -0.0001    0.0010   -0.0021    0.0040    0.0239
          15   -0.0017    0.0114   -0.0036    0.0038    0.0063   -0.0050   -0.0047   -0.0015
          16    0.0018   -0.0023   -0.0066   -0.0040    0.0028    0.0103   -0.0138    0.0067
          17    0.0030    0.0015    0.0026    0.0024   -0.0013   -0.0062    0.0083   -0.0037
          18   -0.0016    0.0124   -0.0058   -0.0569    0.0078   -0.0281   -0.0060    0.0155
          19   -0.0027   -0.0052   -0.0118   -0.0091    0.0044   -0.0056   -0.0073    0.0111
          20    0.0003    0.0028    0.0078    0.0054   -0.0025    0.0033    0.0043   -0.0065
          21    0.0043    0.0011    0.0159    0.0204   -0.0037    0.0079    0.0017   -0.0027
          22    0.0257    0.1232   -0.0642    0.1024    0.1723    0.0412    0.0419    0.0192
          23   -0.0953    0.1146    0.0044    0.0562    0.0772   -0.0084    0.0299    0.0298
          24    0.0111    0.1362   -0.0609    0.0845    0.0985   -0.0093    0.0127    0.0254
          25   -0.0171   -0.0403   -0.0557    0.2305   -0.1053   -0.0902   -0.0398    0.0229
          26    0.1134    0.0494   -0.0247   -0.1388    0.0179    0.0509    0.0094   -0.0269
          27   -0.0327   -0.0618   -0.0478    0.2088   -0.0434   -0.0315   -0.0028    0.0118
          28    0.0073   -0.0078    0.0149    0.0108    0.0476   -0.0308   -0.0323   -0.0345
          29    0.0037    0.0013    0.0127    0.0182    0.0690   -0.0495   -0.0592   -0.0591
          30    0.0255   -0.0326    0.0283    0.0266    0.0659   -0.0449   -0.0185    0.1005
          31   -0.0503   -0.0808    0.0629   -0.0067    0.0642   -0.0099   -0.0041    0.0778
          32   -0.0670   -0.0232    0.0482    0.0048    0.0939   -0.0356   -0.0556   -0.0825
          33   -0.0582   -0.1009    0.0752   -0.0138    0.0672   -0.0136   -0.0173    0.0233
          34   -0.1915    0.0630   -0.0044   -0.0299   -0.0494   -0.0189   -0.0116    0.0001
          35    0.0361    0.0135   -0.0634   -0.0175   -0.0457   -0.0337   -0.0659    0.0326
          36    0.0101    0.0089   -0.0262   -0.0007   -0.0115   -0.0164   -0.0331    0.0255
          37   -0.2153    0.0007   -0.0045   -0.0130    0.0199    0.0403    0.0125   -0.0046
          38   -0.0474   -0.0001    0.0299   -0.0148   -0.0074   -0.0745   -0.0596    0.0573
          39    0.0122    0.0017   -0.0163    0.0145   -0.0005    0.0291    0.0309   -0.0341
          40    0.0015   -0.0115    0.0093    0.0016    0.0177   -0.0140   -0.0261   -0.0561
          41    0.0043   -0.0293    0.0212    0.0018    0.0315   -0.0231   -0.0409   -0.0854
          42   -0.0006   -0.0206    0.0105   -0.0048    0.0003    0.0004    0.0018    0.0104
          43    0.0000   -0.0144    0.0081   -0.0018    0.0024    0.0023    0.0075    0.0262
          44    0.0101   -0.0672    0.0273   -0.0088    0.0190   -0.0219   -0.0460   -0.0946
          45   -0.0018   -0.0204    0.0117   -0.0019    0.0108   -0.0062   -0.0113   -0.0174
          46   -0.0002    0.0116   -0.0031    0.0059    0.0087   -0.0024    0.0020    0.0154
          47    0.0059    0.0332   -0.0103    0.0210    0.0573   -0.0541   -0.0755   -0.0890
          48   -0.0008   -0.0136    0.0044   -0.0068   -0.0145    0.0100    0.0156    0.0216
          49    0.0380    0.1062    0.2508    0.0682   -0.0561    0.0244   -0.0070   -0.0153
          50   -0.0300   -0.0654   -0.1410   -0.0413    0.0321   -0.0143    0.0046    0.0089
          51    0.0260    0.0856    0.1608   -0.0120   -0.0293   -0.0202   -0.0003    0.0015
          52   -0.0098    0.0012   -0.0373   -0.0694    0.0086   -0.1332    0.1189   -0.0389
          53    0.0101   -0.0001    0.0199    0.0405   -0.0063    0.0785   -0.0699    0.0225
          54   -0.0020    0.0071    0.0001   -0.0255    0.0002   -0.0790    0.0872   -0.0368
          55    0.0018   -0.0127    0.0138    0.0487   -0.0096   -0.0890    0.1216   -0.0514
          56    0.0012    0.0073   -0.0080   -0.0281    0.0065    0.0528   -0.0720    0.0308
          57    0.0021    0.0078   -0.0033   -0.0265    0.0074    0.0649   -0.0908    0.0438


   Root No.      33        34        35        36        37        38        39        40

                33 A      34 A      35 A      36 A      37 A      38 A      39 A      40 A   

                1405.4    1405.6    1411.3    1413.3    1425.5    1609.4    1863.7    2950.1
  
           1   -0.0027    0.0016    0.0098    0.0127    0.0073    0.1109    0.0051   -0.0020
           2   -0.0065    0.0063    0.0071    0.0091    0.0120    0.0682    0.0050   -0.0013
           3   -0.0022    0.0012    0.0136    0.0178    0.0117    0.0389    0.0000    0.0038
           4   -0.0172    0.0152    0.0058    0.0085    0.0118   -0.1071   -0.0341    0.0001
           5    0.0108   -0.0094   -0.0065   -0.0089   -0.0104    0.0611    0.0204   -0.0004
           6   -0.0213    0.0183    0.0042    0.0061    0.0084   -0.0388   -0.0307   -0.0009
           7    0.0044   -0.0036   -0.0032   -0.0043   -0.0033   -0.0022   -0.0014   -0.0001
           8    0.0182   -0.0167    0.0115    0.0145    0.0100   -0.1041   -0.0072    0.0001
           9    0.0036   -0.0030   -0.0028   -0.0037   -0.0016    0.0005   -0.0004   -0.0002
          10    0.0060   -0.0047   -0.0128   -0.0200   -0.0155   -0.0243    0.0002    0.0461
          11   -0.0019   -0.0052   -0.0005    0.0002   -0.0493   -0.0205   -0.0004   -0.0075
          12    0.0102   -0.0037   -0.0207   -0.0336   -0.0100   -0.0276   -0.0001   -0.0274
          13   -0.0113   -0.0150   -0.0155    0.0091    0.0134    0.0011   -0.0001   -0.0023
          14    0.0018    0.0076   -0.0016   -0.0010    0.0560    0.0036   -0.0001    0.0004
          15    0.0096    0.0135   -0.0148    0.0160    0.0014    0.0003   -0.0001    0.0014
          16    0.0048   -0.0042   -0.0014   -0.0020   -0.0020   -0.0060    0.1972    0.0000
          17   -0.0026    0.0022    0.0006    0.0008    0.0010    0.0030   -0.1162    0.0000
          18    0.0171   -0.0148   -0.0039   -0.0055   -0.0075    0.0236    0.0407    0.0001
          19    0.0121   -0.0105   -0.0036   -0.0051   -0.0062    0.0292   -0.1675    0.0000
          20   -0.0072    0.0062    0.0021    0.0030    0.0036   -0.0172    0.0989    0.0000
          21   -0.0027    0.0023    0.0004    0.0006    0.0008    0.0001    0.0003    0.0000
          22   -0.0057   -0.0003   -0.0202   -0.0242   -0.0169   -0.0331   -0.0016    0.0294
          23    0.0095   -0.0152   -0.0151   -0.0156   -0.0230   -0.0144    0.0011    0.0162
          24    0.0017   -0.0068   -0.0111   -0.0121   -0.0144   -0.0765   -0.0071   -0.0442
          25    0.0332   -0.0277   -0.0050   -0.0095   -0.0067    0.0316    0.0374   -0.0053
          26   -0.0203    0.0170    0.0113    0.0158    0.0131   -0.0094   -0.0222    0.0029
          27    0.0178   -0.0148   -0.0079   -0.0126   -0.0096    0.0676    0.0218    0.0078
          28    0.0148    0.0010   -0.0211   -0.0374    0.0552   -0.0040    0.0011   -0.3394
          29    0.0166    0.0056   -0.0179   -0.0379    0.0826    0.0103    0.0002    0.2034
          30   -0.0486    0.0123    0.0714    0.1461   -0.0484   -0.0006    0.0004   -0.0237
          31   -0.0483    0.0098    0.0686    0.1386   -0.0419    0.0372    0.0007   -0.2136
          32    0.0261    0.0027   -0.0297   -0.0606    0.1041    0.0253    0.0011   -0.1125
          33   -0.0198    0.0092    0.0278    0.0603    0.0127    0.0262    0.0005    0.3535
          34    0.0076   -0.0070    0.0050    0.0057   -0.0007    0.0212    0.0058    0.0001
          35   -0.1141    0.1036   -0.0475   -0.0578   -0.0284    0.0156   -0.0049   -0.0019
          36   -0.0839    0.0763   -0.0408   -0.0500   -0.0263    0.0829   -0.0005    0.0017
          37   -0.0101    0.0089   -0.0035   -0.0044   -0.0006   -0.0173   -0.0020   -0.0002
          38   -0.0963    0.0889   -0.0608   -0.0750   -0.0385    0.0165   -0.0008    0.0002
          39    0.0779   -0.0716    0.0454    0.0560    0.0312   -0.0825   -0.0066    0.0004
          40   -0.0210   -0.0411   -0.0357    0.0207   -0.0778   -0.0047    0.0000    0.0197
          41   -0.0321   -0.0628   -0.0449    0.0224   -0.1124   -0.0060    0.0002   -0.0077
          42   -0.1068   -0.1351    0.1627   -0.1229    0.0179    0.0011    0.0001    0.0008
          43    0.0294    0.0578    0.1893   -0.1097    0.0039    0.0013    0.0001    0.0116
          44    0.0532    0.0575   -0.0429    0.0426   -0.1438   -0.0062    0.0000    0.0024
          45    0.0434    0.0654    0.1136   -0.0558   -0.0582   -0.0026    0.0000   -0.0185
          46    0.1262    0.1814    0.0490    0.0007   -0.0131   -0.0004   -0.0001   -0.0008
          47   -0.0425   -0.0502    0.1076   -0.0272   -0.1075    0.0096   -0.0002    0.0001
          48   -0.0625   -0.0911   -0.0726    0.0188    0.0606   -0.0024   -0.0001   -0.0005
          49   -0.0181    0.0160    0.0050    0.0073    0.0090   -0.0284   -0.0032    0.0001
          50    0.0113   -0.0098   -0.0028   -0.0038   -0.0052    0.0170    0.0009   -0.0001
          51    0.0030   -0.0025    0.0000    0.0001   -0.0009    0.0142   -0.1342   -0.0002
          52   -0.0245    0.0211    0.0073    0.0103    0.0099   -0.0082   -0.0054    0.0000
          53    0.0146   -0.0125   -0.0042   -0.0059   -0.0055    0.0045    0.0044    0.0000
          54   -0.0280    0.0241    0.0080    0.0113    0.0120   -0.0284    0.1530    0.0000
          55   -0.0378    0.0327    0.0096    0.0134    0.0145   -0.0133   -0.0264    0.0000
          56    0.0223   -0.0192   -0.0059   -0.0081   -0.0088    0.0082    0.0147    0.0000
          57    0.0351   -0.0303   -0.0096   -0.0135   -0.0151    0.0371   -0.1431    0.0000


   Root No.      41        42        43        44        45        46        47        48

                41 A      42 A      43 A      44 A      45 A      46 A      47 A      48 A   

                2990.9    2999.9    3029.8    3038.4    3080.5    3085.5    3090.0    3130.1
  
           1   -0.0095    0.0220    0.0003   -0.0004    0.0000    0.0002    0.0013    0.0011
           2   -0.0061    0.0128    0.0002   -0.0001    0.0000    0.0004    0.0007    0.0002
           3    0.0155   -0.0375   -0.0013    0.0001    0.0002    0.0000   -0.0028   -0.0001
           4    0.0228    0.0087   -0.0003    0.0029   -0.0001    0.0000    0.0012   -0.0010
           5   -0.0133   -0.0046    0.0003   -0.0017    0.0000    0.0000   -0.0007    0.0000
           6   -0.0392   -0.0157    0.0009   -0.0041    0.0001    0.0000   -0.0027    0.0001
           7    0.0002    0.0003   -0.0001   -0.0001    0.0000    0.0000    0.0005   -0.0001
           8    0.0007   -0.0003    0.0001   -0.0001    0.0000    0.0000    0.0006   -0.0430
           9    0.0016    0.0041   -0.0002    0.0003   -0.0004   -0.0007   -0.0562   -0.0009
          10   -0.0026    0.0039   -0.0129    0.0001    0.0023   -0.0011    0.0002    0.0001
          11    0.0011   -0.0010    0.0244   -0.0003   -0.0003    0.0017    0.0003    0.0002
          12    0.0008   -0.0020   -0.0267    0.0004   -0.0015   -0.0018    0.0001   -0.0002
          13    0.0002    0.0000    0.0022    0.0000    0.0424   -0.0276    0.0001    0.0000
          14    0.0000    0.0000    0.0002    0.0000   -0.0072    0.0054    0.0000    0.0000
          15    0.0000   -0.0001    0.0034   -0.0001   -0.0308   -0.0392    0.0008    0.0000
          16   -0.0018   -0.0003    0.0003    0.0311    0.0000    0.0000    0.0003   -0.0003
          17    0.0011    0.0004   -0.0001   -0.0188    0.0000    0.0000   -0.0004    0.0002
          18    0.0036    0.0013   -0.0005   -0.0550    0.0000    0.0000    0.0000    0.0003
          19    0.0002    0.0001    0.0000   -0.0015    0.0000    0.0000    0.0001    0.0004
          20   -0.0001   -0.0001    0.0000    0.0009    0.0000    0.0000    0.0000   -0.0002
          21   -0.0006   -0.0002    0.0001    0.0046    0.0000    0.0000   -0.0001   -0.0009
          22    0.1080   -0.2641   -0.0065    0.0006    0.0019   -0.0005   -0.0176   -0.0008
          23    0.0652   -0.1525   -0.0030    0.0011    0.0014    0.0001   -0.0129   -0.0003
          24   -0.1933    0.4569    0.0119   -0.0043   -0.0016    0.0015    0.0277    0.0020
          25   -0.2718   -0.1099    0.0048   -0.0268    0.0005   -0.0002   -0.0167    0.0004
          26    0.1562    0.0604   -0.0031    0.0153   -0.0005    0.0003    0.0121    0.0000
          27    0.4732    0.1850   -0.0098    0.0539   -0.0012    0.0003    0.0261   -0.0013
          28    0.0292   -0.0334    0.3852   -0.0038   -0.0144    0.0264   -0.0010    0.0009
          29   -0.0167    0.0194   -0.2098    0.0021    0.0123   -0.0171    0.0006   -0.0006
          30    0.0022   -0.0039   -0.0047    0.0001   -0.0017   -0.0010   -0.0001   -0.0002
          31    0.0049   -0.0115   -0.2286    0.0031   -0.0115   -0.0154    0.0009   -0.0020
          32    0.0027   -0.0066   -0.0877    0.0012   -0.0094   -0.0069    0.0010   -0.0013
          33   -0.0094    0.0258    0.3285   -0.0044    0.0184    0.0199    0.0001    0.0026
          34    0.0028   -0.0011   -0.0004    0.0001    0.0000   -0.0001   -0.0041    0.0044
          35    0.0080    0.0159   -0.0018    0.0044   -0.0020   -0.0034   -0.2564    0.2500
          36   -0.0120   -0.0257    0.0015   -0.0063    0.0027    0.0046    0.3446   -0.3824
          37   -0.0028    0.0011    0.0000   -0.0006    0.0000    0.0000   -0.0030   -0.0036
          38   -0.0051   -0.0175   -0.0012    0.0012    0.0016    0.0027    0.2498    0.2591
          39   -0.0090   -0.0272   -0.0016   -0.0004    0.0021    0.0035    0.3330    0.3929
          40   -0.0020    0.0005   -0.0159   -0.0002   -0.3261    0.2312   -0.0011    0.0001
          41    0.0012    0.0002    0.0089    0.0001    0.1981   -0.1392    0.0007    0.0000
          42    0.0000   -0.0001    0.0009    0.0000   -0.0250   -0.0140    0.0004   -0.0001
          43    0.0000   -0.0012    0.0086   -0.0003   -0.2323   -0.1151    0.0032   -0.0003
          44    0.0003   -0.0014    0.0031   -0.0001   -0.1235   -0.0446    0.0014   -0.0001
          45    0.0007    0.0006   -0.0103    0.0005    0.3601    0.1290   -0.0044    0.0003
          46    0.0001   -0.0006   -0.0187    0.0003    0.0515    0.2131   -0.0036    0.0003
          47    0.0001   -0.0005   -0.0067    0.0001    0.0114    0.1184   -0.0019    0.0002
          48    0.0001   -0.0011   -0.0318    0.0004    0.0328    0.3531   -0.0056    0.0005
          49    0.0220    0.0084   -0.0027   -0.3193    0.0001    0.0000    0.0000    0.0018
          50   -0.0135   -0.0044    0.0016    0.1931   -0.0001    0.0000   -0.0004   -0.0015
          51   -0.0400   -0.0125    0.0055    0.6576   -0.0003    0.0001    0.0017   -0.0034
          52   -0.0026   -0.0015    0.0001   -0.0050    0.0000   -0.0001   -0.0012   -0.0046
          53    0.0016    0.0009   -0.0001    0.0031    0.0000    0.0001    0.0007    0.0028
          54    0.0027    0.0018   -0.0002    0.0054    0.0000    0.0002    0.0020    0.0086
          55   -0.0002   -0.0003   -0.0002   -0.0310    0.0000    0.0000   -0.0003    0.0011
          56    0.0001    0.0001    0.0001    0.0179    0.0000    0.0000    0.0003   -0.0007
          57    0.0004   -0.0003   -0.0004   -0.0621    0.0000    0.0000   -0.0007    0.0016


   Root No.      49        50        51

                49 A      50 A      51 A   

                3136.6    3147.7    3181.8
  
           1   -0.0001   -0.0001   -0.0001
           2   -0.0001    0.0000   -0.0001
           3    0.0001    0.0000    0.0001
           4    0.0002    0.0007    0.0000
           5   -0.0001   -0.0004    0.0000
           6    0.0005   -0.0003    0.0000
           7    0.0000   -0.0001    0.0000
           8    0.0008    0.0000    0.0000
           9    0.0003   -0.0001    0.0000
          10    0.0000    0.0000    0.0002
          11    0.0000    0.0000    0.0004
          12    0.0000    0.0000    0.0002
          13    0.0000    0.0000    0.0045
          14    0.0000    0.0000    0.0242
          15    0.0000    0.0000    0.0010
          16   -0.0029    0.0076    0.0000
          17    0.0017   -0.0045    0.0000
          18   -0.0014   -0.0044    0.0000
          19    0.0232   -0.0385    0.0000
          20   -0.0141    0.0226    0.0000
          21   -0.0620   -0.0354    0.0000
          22    0.0004   -0.0004    0.0011
          23    0.0003   -0.0002    0.0009
          24   -0.0009    0.0004   -0.0014
          25    0.0039   -0.0023   -0.0001
          26   -0.0023    0.0013    0.0002
          27   -0.0028    0.0053    0.0003
          28    0.0001   -0.0001   -0.0020
          29   -0.0001    0.0001    0.0020
          30    0.0000    0.0001    0.0001
          31   -0.0001    0.0000    0.0017
          32    0.0000    0.0000    0.0016
          33    0.0000    0.0000   -0.0022
          34   -0.0002    0.0001    0.0000
          35   -0.0036   -0.0001    0.0001
          36    0.0058    0.0001   -0.0001
          37    0.0000    0.0000    0.0000
          38   -0.0057    0.0008    0.0000
          39   -0.0086    0.0010    0.0000
          40    0.0000   -0.0001    0.2818
          41    0.0000    0.0001   -0.1513
          42    0.0000    0.0000    0.0074
          43    0.0001    0.0000   -0.1710
          44    0.0000    0.0000   -0.0706
          45   -0.0001   -0.0001    0.2562
          46   -0.0001    0.0001   -0.1659
          47   -0.0001    0.0001   -0.0747
          48   -0.0002    0.0001   -0.2754
          49   -0.0091   -0.0268    0.0000
          50    0.0055    0.0162    0.0000
          51    0.0109    0.0499    0.0000
          52   -0.3284    0.0673    0.0000
          53    0.1980   -0.0409    0.0000
          54    0.6114   -0.1568   -0.0001
          55    0.0900    0.3238    0.0001
          56   -0.0523   -0.1876    0.0000
          57    0.1293    0.5787    0.0001


           MASS-WEIGHTED COORDINATE ANALYSIS (NORMAL COORDINATES)


   Root No.       1         2         3         4         5         6         7         8

                 1 A       2 A       3 A       4 A       5 A       6 A       7 A       8 A   

                  67.2      78.4     159.6     200.0     261.9     351.1     425.3     462.2
  
           1   -0.0712   -0.1058   -0.1023   -0.0449   -0.2490   -0.1489   -0.0452   -0.0339
           2    0.1808    0.0860    0.2058   -0.0728    0.1021   -0.0381   -0.0691    0.3020
           3    0.0724    0.0389   -0.0675    0.1296    0.1374   -0.1158    0.4498    0.0129
           4   -0.0719   -0.1072   -0.1119   -0.0350   -0.2589   -0.1359   -0.0903   -0.0546
           5    0.0490   -0.3327    0.0398   -0.1310   -0.2015   -0.2688   -0.0584   -0.0057
           6   -0.0396   -0.0052    0.0463    0.0094    0.3430   -0.2170   -0.2678   -0.1206
           7    0.0419    0.2511    0.0295    0.0139    0.0207    0.0042   -0.0997    0.3697
           8    0.1152   -0.1201    0.1247   -0.1050   -0.0486   -0.1684   -0.0425    0.1904
           9   -0.1254   -0.1674    0.0723   -0.0698   -0.0758    0.3122   -0.0989    0.2965
          10   -0.1677   -0.2531    0.1406   -0.1188    0.2213   -0.0429    0.3827    0.0348
          11    0.0411    0.1378   -0.0144    0.0546   -0.0194    0.1715    0.0215   -0.2748
          12    0.1809    0.1082   -0.1325    0.1207   -0.1304   -0.2573    0.2266    0.1288
          13    0.5316    0.0884    0.1941   -0.0213    0.0275    0.1508    0.0822   -0.1458
          14   -0.0839    0.0784   -0.0325    0.0457    0.0213    0.1381    0.1128   -0.3158
          15    0.0356   -0.1125    0.3189   -0.1824   -0.0813    0.2199   -0.0188   -0.1864
          16   -0.0463   -0.1360   -0.2048    0.1550    0.1114    0.0665   -0.1381   -0.0876
          17    0.0569   -0.2531   -0.3151    0.1817    0.1160    0.0803   -0.0146    0.0570
          18   -0.0531    0.0391   -0.0299    0.0074    0.2258   -0.2287   -0.2956   -0.1272
          19   -0.2702    0.2240   -0.0072    0.0480    0.0524    0.0431   -0.1180   -0.0915
          20   -0.3211    0.3534    0.0230   -0.0006    0.0165    0.0405    0.0430    0.0780
          21   -0.0755    0.1128   -0.2301    0.0223   -0.2857    0.1472    0.0353   -0.0131
          22   -0.0076   -0.0481   -0.0709   -0.0049   -0.1740   -0.0622    0.0279   -0.0240
          23    0.0946    0.0994    0.0820   -0.0071    0.1300   -0.0720   -0.0319    0.1486
          24    0.0421    0.0258   -0.0348    0.0440    0.0111   -0.0639    0.1431    0.0162
          25   -0.0497   -0.0652   -0.0317   -0.0416   -0.1207   -0.0754   -0.1109   -0.0620
          26   -0.0275   -0.1809    0.0284   -0.0895   -0.1659   -0.0696   -0.0828   -0.0223
          27   -0.0143    0.0068    0.0063    0.0019    0.1025   -0.0826   -0.1019   -0.0529
          28   -0.1254   -0.1118    0.0441   -0.0446    0.0935   -0.0117    0.1628   -0.0015
          29   -0.1123   -0.0187   -0.0113    0.0019    0.0298    0.0423    0.0779   -0.1039
          30    0.1375    0.1124   -0.1536    0.0725   -0.1902   -0.1289   -0.0886   -0.0147
          31   -0.1455   -0.1418    0.1047   -0.0490    0.1925    0.0174    0.2719    0.0302
          32    0.1236    0.1229   -0.0818    0.0745   -0.0674    0.0147   -0.0381   -0.1046
          33    0.0273    0.0148   -0.0229    0.0431    0.0203   -0.0656    0.1454    0.0412
          34    0.0112    0.1157    0.0585   -0.0175    0.0815   -0.0059   -0.2010    0.1685
          35    0.0051   -0.0714    0.0540   -0.0587   -0.0767    0.0773   -0.0659    0.1787
          36   -0.0563   -0.0738    0.0344   -0.0407   -0.0656    0.1822   -0.0696    0.1789
          37    0.0459    0.1332   -0.0004    0.0413    0.0122    0.0599    0.1303    0.1933
          38    0.0618    0.0016    0.0161   -0.0007    0.0483   -0.1745    0.0395   -0.0672
          39   -0.0560   -0.0738    0.0348   -0.0409   -0.0664    0.1831   -0.0658    0.1786
          40    0.2347    0.0665    0.0582   -0.0053   -0.0127    0.0776   -0.0174   -0.0821
          41    0.1034    0.0851    0.0069    0.0336   -0.0323    0.0939   -0.0366   -0.1555
          42   -0.0694   -0.1223    0.4127    0.3986   -0.1345    0.0796   -0.0549   -0.0940
          43    0.2502    0.1017   -0.1626   -0.4066    0.0923    0.1078    0.0117   -0.0849
          44   -0.1386   -0.0635    0.1038    0.0253    0.0204    0.1022    0.0222   -0.1440
          45    0.0354   -0.0114   -0.0165   -0.3218    0.0387    0.1308   -0.0182   -0.1037
          46    0.1408   -0.0101    0.2903    0.4196   -0.1041    0.0123   -0.0089   -0.0393
          47   -0.0651    0.0341   -0.1409   -0.0185    0.0386   -0.0870    0.1328    0.0289
          48    0.0325   -0.0145   -0.0058   -0.3037    0.0339    0.1290   -0.0202   -0.1010
          49    0.0457   -0.1301   -0.1248    0.1201    0.1808    0.0820   -0.1103   -0.0124
          50    0.1077   -0.1974   -0.2667    0.1827    0.1417    0.2125   -0.0361    0.0812
          51   -0.0134    0.0036    0.0105    0.0006    0.1033   -0.0888   -0.1082   -0.0483
          52   -0.1376    0.1567    0.0553   -0.0586   -0.1657   -0.0148    0.0721   -0.0424
          53   -0.1837    0.2275    0.1839   -0.1299   -0.0858   -0.2109    0.0319   -0.0555
          54   -0.0244    0.0415   -0.0937    0.0095   -0.1523    0.1020    0.0630    0.0139
          55   -0.0772    0.0667   -0.0066    0.0575    0.1824    0.0309   -0.1374   -0.0131
          56   -0.1003    0.1348   -0.0823    0.0811    0.0665    0.2263    0.0127    0.1089
          57   -0.0250    0.0425   -0.0940    0.0085   -0.1595    0.1049    0.0703    0.0170


   Root No.       9        10        11        12        13        14        15        16

                 9 A      10 A      11 A      12 A      13 A      14 A      15 A      16 A   

                 468.6     642.3     813.4     851.9     876.1     926.8     938.0     968.5
  
[...]
 EFF. MASS   3.6300

 VIBRATION   30   30A       ATOM PAIR        ENERGY CONTRIBUTION    RADIAL
 FREQ.      1283.55        C  2 --  C  6          +13.8% ( 50.4%)    61.9%
 T-DIPOLE    0.0875        C  1 --  C  2          +10.7% ( 44.2%)     6.3%
 TRAVEL      0.0935        C  2 --  H  9          +10.5% ( 43.9%)    13.1%
 RED. MASS   0.5516        C  2 --  C  3           +8.9% ( 40.5%)     0.9%
 EFF. MASS   6.0056

 VIBRATION   31   31A       ATOM PAIR        ENERGY CONTRIBUTION    RADIAL
 FREQ.      1327.64        C  7 --  H 19          +13.2% ( 42.3%)     0.6%
 T-DIPOLE    0.1109        C  7 --  H 18          +12.4% ( 41.1%)     1.2%
 TRAVEL      0.1169        C  4 --  H 10           +9.6% ( 36.1%)     0.0%
 RED. MASS   0.3413        C  1 --  C  4           +9.2% ( 35.3%)    78.2%
 EFF. MASS   3.7174

 VIBRATION   32   32A       ATOM PAIR        ENERGY CONTRIBUTION    RADIAL
 FREQ.      1374.35        C  5 --  H 14           +8.7% ( 34.9%)     4.3%
 T-DIPOLE    0.0936        C  5 --  H 15           +8.7% ( 34.8%)     2.3%
 TRAVEL      0.1138        C  4 --  H 10           +8.5% ( 34.3%)     1.2%
 RED. MASS   0.2621        C  5 --  H 16           +8.1% ( 33.6%)     1.4%
 EFF. MASS   3.7879

 VIBRATION   33   33A       ATOM PAIR        ENERGY CONTRIBUTION    RADIAL
 FREQ.      1405.42        C  3 --  H 12          +13.5% ( 40.3%)     1.3%
 T-DIPOLE    0.1015        C  5 --  H 16          +11.7% ( 37.5%)     0.2%
 TRAVEL      0.1204        C  2 --  C  6          +10.9% ( 36.1%)   100.0%
 RED. MASS   0.2440        C  3 --  H 13          +10.3% ( 35.2%)     4.8%
 EFF. MASS   3.3102

 VIBRATION   34   34A       ATOM PAIR        ENERGY CONTRIBUTION    RADIAL
 FREQ.      1405.55        C  5 --  H 16          +23.0% ( 48.9%)     0.4%
 T-DIPOLE    0.0730        C  5 --  H 14          +12.8% ( 36.5%)     6.5%
 TRAVEL      0.1338        C  3 --  H 12          +10.8% ( 33.5%)     1.4%
 RED. MASS   0.2392        C  3 --  H 13           +8.5% ( 29.6%)     4.5%
 EFF. MASS   2.6779

 VIBRATION   35   35A       ATOM PAIR        ENERGY CONTRIBUTION    RADIAL
 FREQ.      1411.29        C  5 --  H 15          +27.5% ( 50.9%)     0.1%
 T-DIPOLE    0.0440        C  5 --  H 14          +16.3% ( 39.2%)     3.4%
 TRAVEL      0.1430        C  5 --  H 16          +10.4% ( 31.3%)    18.1%
 RED. MASS   0.2539        C  1 --  C  4           +7.6% ( 26.7%)    98.7%
 EFF. MASS   2.3378

 VIBRATION   36   36A       ATOM PAIR        ENERGY CONTRIBUTION    RADIAL
 FREQ.      1413.31        C  4 --  H 11          +18.3% ( 47.9%)     3.9%
 T-DIPOLE    0.1168        C  4 --  H 10          +16.7% ( 45.8%)     4.9%
 TRAVEL      0.1148        C  1 --  C  4          +12.9% ( 40.3%)    97.9%
 RED. MASS   0.3666        C  4 --  C  5           +8.6% ( 32.9%)     0.4%
 EFF. MASS   3.6216

 VIBRATION   37   37A       ATOM PAIR        ENERGY CONTRIBUTION    RADIAL
 FREQ.      1425.54        C  4 --  C  5          +20.4% ( 60.2%)    98.1%
 T-DIPOLE    0.1091        C  5 --  H 15          +14.6% ( 50.9%)     3.7%
 TRAVEL      0.0889        C  5 --  H 14          +13.4% ( 48.7%)     2.7%
 RED. MASS   1.1320        C  5 --  H 16          +12.1% ( 46.3%)     4.8%
 EFF. MASS   5.9839        C  4 --  H 11          +10.2% ( 42.6%)     1.8%
                           C  4 --  H 10          +10.1% ( 42.2%)     1.6%

 VIBRATION   38   38A       ATOM PAIR        ENERGY CONTRIBUTION    RADIAL
 FREQ.      1609.39        C  1 --  C  2          +19.6% ( 73.4%)    88.6%
 T-DIPOLE    0.1177        C  1 --  C  3          +16.8% ( 68.0%)    96.3%
 TRAVEL      0.0600        C  2 --  C  3          +15.8% ( 65.8%)    96.0%
 RED. MASS   3.2412        C  1 --  C  4          +10.0% ( 52.4%)    70.3%
 EFF. MASS  11.6233

 VIBRATION   39   39A       ATOM PAIR        ENERGY CONTRIBUTION    RADIAL
 FREQ.      1863.66        C  6 --  C  7          +44.3% ( 98.5%)    98.7%
 T-DIPOLE    0.3534        C  2 --  C  6          +17.5% ( 61.9%)    56.3%
 TRAVEL      0.0554        C  6 --  H 17          +15.6% ( 58.5%)     3.6%
 RED. MASS   5.2365        C  7 --  H 18          +10.5% ( 47.9%)    10.9%
 EFF. MASS  11.7941        C  7 --  H 19          +10.3% ( 47.4%)    13.1%

 VIBRATION   40   40A       ATOM PAIR        ENERGY CONTRIBUTION    RADIAL
 FREQ.      2950.14        C  4 --  H 11          +51.6% ( 74.7%)    96.9%
 T-DIPOLE    0.0180        C  4 --  H 10          +44.9% ( 69.6%)    96.0%
 TRAVEL      0.1216        C  1 --  C  4           +1.2% ( 11.3%)     0.4%
 RED. MASS   0.5090        C  4 --  C  5           +1.2% ( 11.2%)     0.0%
 EFF. MASS   1.5458

 VIBRATION   41   41A       ATOM PAIR        ENERGY CONTRIBUTION    RADIAL
 FREQ.      2990.95        C  2 --  H  9          +81.8% ( 92.2%)   100.0%
 T-DIPOLE    0.1124        C  1 --  H  8          +13.6% ( 37.6%)   100.0%
 TRAVEL      0.1239        C  1 --  C  2           +1.3% ( 11.6%)    25.6%
 RED. MASS   0.6891        C  2 --  C  6           +1.0% ( 10.3%)    14.8%
 EFF. MASS   1.4696

 VIBRATION   42   42A       ATOM PAIR        ENERGY CONTRIBUTION    RADIAL
 FREQ.      2999.87        C  1 --  H  8          +81.9% ( 92.0%)   100.0%
 T-DIPOLE    0.2538        C  2 --  H  9          +13.5% ( 37.3%)   100.0%
 TRAVEL      0.1248        C  1 --  C  3           +1.0% ( 10.0%)    20.8%
 RED. MASS   0.6851        C  1 --  C  2           +1.0% ( 10.0%)    18.7%
 EFF. MASS   1.4428

 VIBRATION   43   43A       ATOM PAIR        ENERGY CONTRIBUTION    RADIAL
 FREQ.      3029.76        C  4 --  H 10          +52.5% ( 71.4%)    98.1%
 T-DIPOLE    0.0276        C  4 --  H 11          +45.5% ( 66.5%)    97.3%
 TRAVEL      0.1321        C  4 --  C  5           +0.6% (  7.9%)    26.3%
 RED. MASS   0.4798        C  1 --  C  4           +0.6% (  7.7%)    30.0%
 EFF. MASS   1.2759

 VIBRATION   44   44A       ATOM PAIR        ENERGY CONTRIBUTION    RADIAL
 FREQ.      3038.43        C  6 --  H 17          +95.7% ( 99.2%)   100.0%
 T-DIPOLE    0.2439        C  6 --  C  7           +1.4% ( 12.2%)    30.9%
 TRAVEL      0.1215        C  2 --  C  6           +1.3% ( 11.7%)    15.6%
 RED. MASS   0.9018        C  7 --  H 19           +0.8% (  9.3%)    95.0%
 EFF. MASS   1.5045

 VIBRATION   45   45A       ATOM PAIR        ENERGY CONTRIBUTION    RADIAL
 FREQ.      3080.47        C  5 --  H 15          +55.7% ( 77.0%)    97.9%
 T-DIPOLE    0.0088        C  5 --  H 14          +41.3% ( 66.3%)    95.8%
 TRAVEL      0.1207        C  5 --  H 16           +1.8% ( 13.9%)    19.6%
 RED. MASS   0.5087        C  4 --  C  5           +1.0% ( 10.2%)     0.0%
 EFF. MASS   1.5017

 VIBRATION   46   46A       ATOM PAIR        ENERGY CONTRIBUTION    RADIAL
 FREQ.      3085.53        C  5 --  H 16          +62.2% ( 81.4%)    98.7%
 T-DIPOLE    0.0055        C  5 --  H 14          +25.0% ( 51.5%)    90.3%
 TRAVEL      0.1205        C  5 --  H 15          +11.3% ( 34.7%)    76.4%
 RED. MASS   0.4906        C  4 --  C  5           +1.0% ( 10.3%)     0.0%
 EFF. MASS   1.5043

 VIBRATION   47   47A       ATOM PAIR        ENERGY CONTRIBUTION    RADIAL
 FREQ.      3090.01        C  3 --  H 12          +50.0% ( 73.0%)    97.3%
 T-DIPOLE    0.1959        C  3 --  H 13          +47.1% ( 70.9%)    97.0%
 TRAVEL      0.1186        C  2 --  C  3           +1.2% ( 11.1%)     0.1%
 RED. MASS   0.5148        C  1 --  C  3           +1.1% ( 11.1%)     0.0%
 EFF. MASS   1.5522

 VIBRATION   48   48A       ATOM PAIR        ENERGY CONTRIBUTION    RADIAL
 FREQ.      3130.10        C  3 --  H 13          +50.7% ( 70.8%)    96.6%
 T-DIPOLE    0.2125        C  3 --  H 12          +47.6% ( 68.6%)    96.1%
 TRAVEL      0.1287        C  1 --  C  3           +0.8% (  9.1%)    77.2%
 RED. MASS   0.4845        C  2 --  C  3           +0.8% (  9.1%)    76.1%
 EFF. MASS   1.2997

 VIBRATION   49   49A       ATOM PAIR        ENERGY CONTRIBUTION    RADIAL
 FREQ.      3136.57        C  7 --  H 18          +91.6% ( 97.5%)    99.9%
 T-DIPOLE    0.1999        C  7 --  H 19           +7.0% ( 26.9%)    71.7%
 TRAVEL      0.1182        C  6 --  C  7           +1.3% ( 11.7%)    21.9%
 RED. MASS   0.8509
 EFF. MASS   1.5389

 VIBRATION   50   50A       ATOM PAIR        ENERGY CONTRIBUTION    RADIAL
 FREQ.      3147.68        C  7 --  H 19          +91.7% ( 96.4%)    99.7%
 T-DIPOLE    0.2695        C  7 --  H 18           +6.0% ( 24.6%)    42.4%
 TRAVEL      0.1210        C  6 --  C  7           +1.6% ( 12.7%)    73.2%
 RED. MASS   0.8169        C  6 --  H 17           +0.7% (  8.5%)    94.5%
 EFF. MASS   1.4640

 VIBRATION   51   51A       ATOM PAIR        ENERGY CONTRIBUTION    RADIAL
 FREQ.      3181.81        C  5 --  H 16          +35.1% ( 57.0%)    97.4%
 T-DIPOLE    0.0147        C  5 --  H 14          +32.8% ( 55.1%)    97.0%
 TRAVEL      0.1366        C  5 --  H 15          +31.9% ( 54.3%)    96.9%
 RED. MASS   0.3275        C  4 --  C  5           +0.3% (  5.1%)    99.9%
 EFF. MASS   1.1360

 SYMMETRY NUMBER FOR POINT-GROUP C1  =  1


          SYSTEM IS A GROUND STATE


    NULL



          MOLECULE IS NOT LINEAR

          THERE ARE 51 GENUINE VIBRATIONS IN THIS SYSTEM
          THIS THERMODYNAMICS CALCULATION IS LIMITED TO
          MOLECULES WHICH HAVE NO INTERNAL ROTATIONS




                    CALCULATED THERMODYNAMIC PROPERTIES
                                          *
   TEMP. (K)   PARTITION FUNCTION   H.O.F.    ENTHALPY  HEAT CAPACITY ENTROPY
                                   KCAL/MOL   CAL/MOLE    CAL/K/MOL  CAL/K/MOL


 298.00  VIB.     0.1033D+03                  3283.9421    23.5319    20.2362
         ROT.     0.2944D+06                   888.2813     2.9808    28.0049
         INT.     0.3041D+08                  4172.2235    26.5127    48.2411
         TRA.     0.9118D+27                  1480.4688     4.9680    39.5994
         TOT.                       20.945    5652.6923    31.4807    87.8405

 200.00  VIB.     0.1723D+02                  1433.8126    14.5807    12.8261
         ROT.     0.1619D+06                   596.1620     2.9808    26.8162
         INT.     0.2789D+07                  2029.9745    17.5615    39.6424
         TRA.     0.5013D+27                   993.6033     4.9680    37.6183
         TOT.                       18.316    3023.5778    22.5295    77.2606

 210.00  VIB.     0.2064D+02                  1583.6233    15.3861    13.5569
         ROT.     0.1741D+06                   625.9700     2.9808    26.9617
         INT.     0.3594D+07                  2209.5933    18.3669    40.5186
         TRA.     0.5394D+27                  1043.2834     4.9680    37.8607
         TOT.                       18.545    3252.8767    23.3349    78.3792

 220.00  VIB.     0.2473D+02                  1741.6269    16.2193    14.2918
         ROT.     0.1867D+06                   655.7781     2.9808    27.1003
         INT.     0.4618D+07                  2397.4051    19.2001    41.3921
         TRA.     0.5784D+27                  1092.9636     4.9680    38.0918
         TOT.                       18.783    3490.3687    24.1681    79.4839

 230.00  VIB.     0.2965D+02                  1908.1016    17.0802    15.0316
         ROT.     0.1996D+06                   685.5862     2.9808    27.2328
         INT.     0.5918D+07                  2593.6879    20.0610    42.2645
         TRA.     0.6182D+27                  1142.6437     4.9680    38.3126
         TOT.                       19.029    3736.3316    25.0290    80.5771

 240.00  VIB.     0.3556D+02                  2083.3200    17.9678    15.7772
         ROT.     0.2128D+06                   715.3943     2.9808    27.3597
         INT.     0.7566D+07                  2798.7144    20.9486    43.1369
         TRA.     0.6590D+27                  1192.3239     4.9680    38.5241
         TOT.                       19.284    3991.0383    25.9166    81.6610

 250.00  VIB.     0.4267D+02                  2267.5416    18.8805    16.5291
         ROT.     0.2262D+06                   745.2024     2.9808    27.4814
         INT.     0.9652D+07                  3012.7440    21.8613    44.0105
         TRA.     0.7006D+27                  1242.0041     4.9680    38.7269
         TOT.                       19.547    4254.7481    26.8293    82.7374

 260.00  VIB.     0.5123D+02                  2461.0065    19.8161    17.2878
         ROT.     0.2399D+06                   775.0105     2.9808    27.5983
         INT.     0.1229D+08                  3236.0170    22.7969    44.8861
         TRA.     0.7431D+27                  1291.6842     4.9680    38.9217
         TOT.                       19.820    4527.7012    27.7649    83.8078

 270.00  VIB.     0.6155D+02                  2663.9310    20.7720    18.0535
         ROT.     0.2539D+06                   804.8186     2.9808    27.7108
         INT.     0.1563D+08                  3468.7496    23.7528    45.7643
         TRA.     0.7864D+27                  1341.3644     4.9680    39.1092
         TOT.                       20.103    4810.1140    28.7208    84.8735

 280.00  VIB.     0.7401D+02                  2876.5042    21.7453    18.8265
         ROT.     0.2681D+06                   834.6267     2.9808    27.8192
         INT.     0.1984D+08                  3711.1309    24.7261    46.6457
         TRA.     0.8304D+27                  1391.0445     4.9680    39.2899
         TOT.                       20.395    5102.1754    29.6942    85.9356

 290.00  VIB.     0.8905D+02                  3098.8860    22.7332    19.6068
         ROT.     0.2826D+06                   864.4348     2.9808    27.9238
         INT.     0.2517D+08                  3963.3209    25.7140    47.5306
         TRA.     0.8753D+27                  1440.7247     4.9680    39.4642
         TOT.                       20.697    5404.0456    30.6820    86.9948

 300.00  VIB.     0.1072D+03                  3331.2066    23.7326    20.3943
         ROT.     0.2973D+06                   894.2429     2.9808    28.0249
         INT.     0.3189D+08                  4225.4495    26.7134    48.4191
         TRA.     0.9210D+27                  1490.4049     4.9680    39.6326
         TOT.                       21.008    5715.8544    31.6814    88.0518

 310.00  VIB.     0.1292D+03                  3573.5658    24.7404    21.1889
         ROT.     0.3123D+06                   924.0510     2.9808    28.1226
         INT.     0.4037D+08                  4497.6168    27.7213    49.3115
         TRA.     0.9674D+27                  1540.0850     4.9680    39.7955
         TOT.                       21.330    6037.7018    32.6893    89.1070

 320.00  VIB.     0.1559D+03                  3826.0342    25.7540    21.9903
         ROT.     0.3276D+06                   953.8591     2.9808    28.2172
         INT.     0.5107D+08                  4779.8933    28.7348    50.2076
         TRA.     0.1015D+28                  1589.7652     4.9680    39.9533
         TOT.                       21.662    6369.6585    33.7028    90.1609

 330.00  VIB.     0.1882D+03                  4088.6544    26.7704    22.7984
         ROT.     0.3430D+06                   983.6672     2.9808    28.3090
         INT.     0.6458D+08                  5072.3216    29.7512    51.1073
         TRA.     0.1063D+28                  1639.4454     4.9680    40.1062
         TOT.                       22.004    6711.7670    34.7192    91.2135

 340.00  VIB.     0.2275D+03                  4361.4425    27.7871    23.6127
         ROT.     0.3588D+06                  1013.4753     2.9808    28.3979
         INT.     0.8162D+08                  5374.9178    30.7679    52.0106
         TRA.     0.1111D+28                  1689.1255     4.9680    40.2545
         TOT.                       22.357    7064.0433    35.7359    92.2651

 350.00  VIB.     0.2752D+03                  4644.3898    28.8018    24.4328
         ROT.     0.3747D+06                  1043.2834     2.9808    28.4843
         INT.     0.1031D+09                  5687.6732    31.7827    52.9171
         TRA.     0.1161D+28                  1738.8057     4.9680    40.3985
         TOT.                       22.719    7426.4789    36.7507    93.3156

 360.00  VIB.     0.3332D+03                  4937.4654    29.8124    25.2583
         ROT.     0.3909D+06                  1073.0915     2.9808    28.5683
         INT.     0.1302D+09                  6010.5569    32.7932    53.8267
         TRA.     0.1211D+28                  1788.4859     4.9680    40.5384
         TOT.                       23.092    7799.0428    37.7613    94.3651

 370.00  VIB.     0.4038D+03                  5240.6181    30.8169    26.0889
         ROT.     0.4073D+06                  1102.8996     2.9808    28.6500
         INT.     0.1645D+09                  6343.5177    33.7977    54.7389
         TRA.     0.1261D+28                  1838.1660     4.9680    40.6745
         TOT.                       23.474    8181.6837    38.7658    95.4134

 380.00  VIB.     0.4898D+03                  5553.7783    31.8137    26.9240
         ROT.     0.4239D+06                  1132.7077     2.9808    28.7295
         INT.     0.2076D+09                  6686.4860    34.7945    55.6535
         TRA.     0.1313D+28                  1887.8462     4.9680    40.8070
         TOT.                       23.867    8574.3321    39.7625    96.4605

 390.00  VIB.     0.5947D+03                  5876.8607    32.8012    27.7631
         ROT.     0.4407D+06                  1162.5158     2.9808    28.8069
         INT.     0.2621D+09                  7039.3765    35.7820    56.5701
         TRA.     0.1365D+28                  1937.5263     4.9680    40.9361
         TOT.                       24.269    8976.9028    40.7500    97.5061

 400.00  VIB.     0.7226D+03                  6209.7661    33.7781    28.6059
         ROT.     0.4578D+06                  1192.3239     2.9808    28.8824
         INT.     0.3308D+09                  7402.0900    36.7589    57.4883
         TRA.     0.1418D+28                  1987.2065     4.9680    41.0619
         TOT.                       24.682    9389.2965    41.7269    98.5502

   *: NOTE: HEATS OF FORMATION ARE RELATIVE TO THE
            ELEMENTS IN THEIR STANDARD STATE AT 298K
              (=  Standard Enthalpy of Formation).

            Hvib:  Zero-point energy is not included.
                   frequencies of less than zero cm-1 are not included.
            Hrot = (3/2)RT
            Htra = (3/2)RT + pV = (5/2)RT

            Heat capacity is Cp, not Cv

           For more information, see: HTTP://OpenMOPAC.net/Manual/thermochemistry.html


           FORCE CONSTANT IN CARTESIAN COORDINATES (Millidynes/A)

    ATOM   CHEMICAL       X               Y               Z
   NUMBER   SYMBOL  FORCE CONSTANT  FORCE CONSTANT  FORCE CONSTANT

      1       C        9.646912        6.824878        8.956658
      2       C        9.809247        6.403075        9.595621
      3       C        4.536408       11.637876        8.839215
      4       C        8.361484        8.414145        8.493510
      5       C        8.272107        8.286528        8.343792
      6       C       12.248723        5.837637        9.414051
      7       C       11.972618        5.462747        9.047498
      8       H        1.706392        0.932586        3.688657
      9       H        1.720145        0.911578        3.688627
     10       H        3.911912        1.754543        0.688767
     11       H        1.886706        0.967936        3.543558
     12       H        0.526929        2.286552        3.828358
     13       H        0.529716        2.296459        3.822446
     14       H        4.193213        1.905634        0.670817
     15       H        2.053908        1.040621        3.690890
     16       H        1.862936        1.039319        3.889564
     17       H        1.437887        0.743962        4.026976
     18       H        1.582325        0.790383        4.099088
     19       H        1.678632        0.791863        4.009620



 TOTAL CPU TIME:             1.94 SECONDS

 == MOPAC DONE ==
