 *******************************************************************************
 ** Site#: 14399           For non-commercial use only        Version 13.159M **
 *******************************************************************************
 ** Cite this work as: MOPAC2012, James J. P. Stewart, Stewart Computational  **
 ** Chemistry, Version 13.159M web: HTTP://OpenMOPAC.net  Days remaining:   6 **
 *******************************************************************************
 **                                                                           **
 **                                MOPAC2012                                  **
 **                                                                           **
 *******************************************************************************

                            PM3 CALCULATION RESULTS


 *******************************************************************************
 *  CALCULATION DONE:                                Mon Jun  2 11:12:23 2014  *
 *  PM3      - The PM3 Hamiltonian to be used
 *  PRECISE  - CRITERIA TO BE INCREASED BY 100 TIMES
 *  NOSYM    - POINT-GROUP SYMMETRY SET TO C1
 *  T=       - A TIME OF 172800.0 SECONDS REQUESTED
 *  DUMP=N   - RESTART FILE WRITTEN EVERY  7200.000 SECONDS
 *******************************************************************************
pm3  precise nosym
 InChI=1S/C11H16/c1-3-7-10(4-2)11-8-5-6-9-11/h3,5-6,8-11H,1,4,7H2,2H3

   ATOM   CHEMICAL          X               Y               Z
  NUMBER   SYMBOL      (ANGSTROMS)     (ANGSTROMS)     (ANGSTROMS)
 
     1       C          0.30640000  *   0.34860000  *  -0.29380000  *
     2       C         -1.20540000  *   0.42750000  *  -0.62830000  *
     3       C          0.70510000  *   1.26970000  *   0.88290000  *
     4       C          0.80350000  *  -1.09640000  *  -0.05240000  *
     5       C          0.44780000  *   2.75980000  *   0.66720000  *
     6       C         -2.11250000  *  -0.16290000  *   0.41060000  *
     7       C         -1.61240000  *  -0.38110000  *  -1.82420000  *
     8       C          2.30320000  *  -1.21990000  *  -0.06470000  *
     9       C         -2.85660000  *  -1.12950000  *  -0.09970000  *
    10       C         -2.54190000  *  -1.26690000  *  -1.50790000  *
    11       C          2.99980000  *  -1.66050000  *   0.98570000  *
    12       H          0.83770000  *   0.73030000  *  -1.19910000  *
    13       H         -1.51440000  *   1.47680000  *  -0.83540000  *
    14       H          0.19910000  *   0.94790000  *   1.82220000  *
    15       H          1.79880000  *   1.17680000  *   1.07690000  *
    16       H          0.45040000  *  -1.77650000  *  -0.85990000  *
    17       H          0.36200000  *  -1.49300000  *   0.89240000  *
    18       H         -0.63980000  *   2.99400000  *   0.68610000  *
    19       H          0.91470000  *   3.34650000  *   1.49090000  *
    20       H          0.88780000  *   3.10670000  *  -0.29530000  *
    21       H         -2.17060000  *   0.15930000  *   1.44520000  *
    22       H         -1.20520000  *  -0.26110000  *  -2.82310000  *
    23       H          2.84010000  *  -0.93760000  *  -0.96950000  *
    24       H         -3.59360000  *  -1.70710000  *   0.44830000  *
    25       H         -2.99890000  *  -1.96790000  *  -2.19830000  *
    26       H          2.51060000  *  -1.95190000  *   1.91370000  *
    27       H          4.08420000  *  -1.73170000  *   0.92910000  *
 


          CARTESIAN COORDINATES 

    NO.       ATOM         X         Y         Z

     1         C        0.3064    0.3486   -0.2938
     2         C       -1.2054    0.4275   -0.6283
     3         C        0.7051    1.2697    0.8829
     4         C        0.8035   -1.0964   -0.0524
     5         C        0.4478    2.7598    0.6672
     6         C       -2.1125   -0.1629    0.4106
     7         C       -1.6124   -0.3811   -1.8242
     8         C        2.3032   -1.2199   -0.0647
     9         C       -2.8566   -1.1295   -0.0997
    10         C       -2.5419   -1.2669   -1.5079
    11         C        2.9998   -1.6605    0.9857
    12         H        0.8377    0.7303   -1.1991
    13         H       -1.5144    1.4768   -0.8354
    14         H        0.1991    0.9479    1.8222
    15         H        1.7988    1.1768    1.0769
    16         H        0.4504   -1.7765   -0.8599
    17         H        0.3620   -1.4930    0.8924
    18         H       -0.6398    2.9940    0.6861
    19         H        0.9147    3.3465    1.4909
    20         H        0.8878    3.1067   -0.2953
    21         H       -2.1706    0.1593    1.4452
    22         H       -1.2052   -0.2611   -2.8231
    23         H        2.8401   -0.9376   -0.9695
    24         H       -3.5936   -1.7071    0.4483
    25         H       -2.9989   -1.9679   -2.1983
    26         H        2.5106   -1.9519    1.9137
    27         H        4.0842   -1.7317    0.9291

  H: (PM3): J. J. P. STEWART, J. COMP. CHEM. 10, 209 (1989).
  C: (PM3): J. J. P. STEWART, J. COMP. CHEM. 10, 209 (1989).

           Empirical Formula: C11 H16  =    27 atoms



      MOLECULAR POINT GROUP   :   C1  


      RHF CALCULATION, NO. OF DOUBLY OCCUPIED LEVELS =   30

      Geometry optimization using EF

          DIAGONAL MATRIX USED AS START HESSIAN

 CYCLE:     1 TIME:   0.014 TIME LEFT:  2.00D  GRAD.:   112.588 HEAT: 39.19813
 CYCLE:     2 TIME:   0.030 TIME LEFT:  2.00D  GRAD.:    73.795 HEAT: 37.47355
 CYCLE:     3 TIME:   0.011 TIME LEFT:  2.00D  GRAD.:    32.603 HEAT: 35.86978
 CYCLE:     4 TIME:   0.019 TIME LEFT:  2.00D  GRAD.:    49.806 HEAT: 35.60112
 CYCLE:     5 TIME:   0.010 TIME LEFT:  2.00D  GRAD.:    40.302 HEAT: 35.07673
 CYCLE:     6 TIME:   0.020 TIME LEFT:  2.00D  GRAD.:    27.429 HEAT: 34.71925
 CYCLE:     7 TIME:   0.011 TIME LEFT:  2.00D  GRAD.:    38.712 HEAT: 34.53314
 CYCLE:     8 TIME:   0.012 TIME LEFT:  2.00D  GRAD.:    24.092 HEAT: 34.12443
 CYCLE:     9 TIME:   0.018 TIME LEFT:  2.00D  GRAD.:    21.913 HEAT: 33.97080
 CYCLE:    10 TIME:   0.010 TIME LEFT:  2.00D  GRAD.:    20.726 HEAT: 33.83054
 CYCLE:    11 TIME:   0.010 TIME LEFT:  2.00D  GRAD.:    25.565 HEAT: 33.77493
 CYCLE:    12 TIME:   0.024 TIME LEFT:  2.00D  GRAD.:    18.953 HEAT: 33.67531
 CYCLE:    13 TIME:   0.011 TIME LEFT:  2.00D  GRAD.:    19.804 HEAT: 33.64670
 CYCLE:    14 TIME:   0.010 TIME LEFT:  2.00D  GRAD.:     8.699 HEAT: 33.53434
 CYCLE:    15 TIME:   0.027 TIME LEFT:  2.00D  GRAD.:     7.717 HEAT: 33.50779
 CYCLE:    16 TIME:   0.010 TIME LEFT:  2.00D  GRAD.:     8.925 HEAT: 33.47736
 CYCLE:    17 TIME:   0.010 TIME LEFT:  2.00D  GRAD.:     9.782 HEAT: 33.43072
 CYCLE:    18 TIME:   0.011 TIME LEFT:  2.00D  GRAD.:     9.307 HEAT: 33.37868
 CYCLE:    19 TIME:   0.011 TIME LEFT:  2.00D  GRAD.:    15.003 HEAT: 33.36010
 CYCLE:    20 TIME:   0.012 TIME LEFT:  2.00D  GRAD.:    14.283 HEAT: 33.33297
 CYCLE:    21 TIME:   0.020 TIME LEFT:  2.00D  GRAD.:     7.603 HEAT: 33.28232
 CYCLE:    22 TIME:   0.019 TIME LEFT:  2.00D  GRAD.:     6.186 HEAT: 33.27103
 CYCLE:    23 TIME:   0.010 TIME LEFT:  2.00D  GRAD.:     6.497 HEAT: 33.26385
 CYCLE:    24 TIME:   0.010 TIME LEFT:  2.00D  GRAD.:     6.340 HEAT: 33.25627
 CYCLE:    25 TIME:   0.010 TIME LEFT:  2.00D  GRAD.:     4.741 HEAT: 33.24510
 CYCLE:    26 TIME:   0.010 TIME LEFT:  2.00D  GRAD.:     3.466 HEAT: 33.23314
 CYCLE:    27 TIME:   0.010 TIME LEFT:  2.00D  GRAD.:     4.675 HEAT: 33.22298
 CYCLE:    28 TIME:   0.012 TIME LEFT:  2.00D  GRAD.:     6.427 HEAT: 33.21666
 CYCLE:    29 TIME:   0.010 TIME LEFT:  2.00D  GRAD.:     3.960 HEAT: 33.20397
 CYCLE:    30 TIME:   0.012 TIME LEFT:  2.00D  GRAD.:     4.139 HEAT: 33.19655
 CYCLE:    31 TIME:   0.010 TIME LEFT:  2.00D  GRAD.:     3.056 HEAT: 33.18723
 CYCLE:    32 TIME:   0.015 TIME LEFT:  2.00D  GRAD.:     4.069 HEAT: 33.17705
 CYCLE:    33 TIME:   0.012 TIME LEFT:  2.00D  GRAD.:     4.488 HEAT: 33.16693
 CYCLE:    34 TIME:   0.010 TIME LEFT:  2.00D  GRAD.:     4.822 HEAT: 33.15545
 CYCLE:    35 TIME:   0.010 TIME LEFT:  2.00D  GRAD.:     4.732 HEAT: 33.13559
 CYCLE:    36 TIME:   0.014 TIME LEFT:  2.00D  GRAD.:     6.949 HEAT: 33.09167
 CYCLE:    37 TIME:   0.015 TIME LEFT:  2.00D  GRAD.:    10.739 HEAT: 33.02072
 CYCLE:    38 TIME:   0.014 TIME LEFT:  2.00D  GRAD.:    11.525 HEAT: 32.94934
 CYCLE:    39 TIME:   0.010 TIME LEFT:  2.00D  GRAD.:     9.951 HEAT: 32.85808
 CYCLE:    40 TIME:   0.010 TIME LEFT:  2.00D  GRAD.:     9.218 HEAT: 32.75503
 CYCLE:    41 TIME:   0.019 TIME LEFT:  2.00D  GRAD.:     9.405 HEAT: 32.63836
 CYCLE:    42 TIME:   0.010 TIME LEFT:  2.00D  GRAD.:     9.462 HEAT: 32.58428
 CYCLE:    43 TIME:   0.010 TIME LEFT:  2.00D  GRAD.:     6.662 HEAT: 32.50483
 CYCLE:    44 TIME:   0.011 TIME LEFT:  2.00D  GRAD.:     3.788 HEAT: 32.46893
 CYCLE:    45 TIME:   0.010 TIME LEFT:  2.00D  GRAD.:     3.625 HEAT: 32.43601
 CYCLE:    46 TIME:   0.010 TIME LEFT:  2.00D  GRAD.:     3.116 HEAT: 32.39963
 CYCLE:    47 TIME:   0.010 TIME LEFT:  2.00D  GRAD.:     2.554 HEAT: 32.38754
 CYCLE:    48 TIME:   0.010 TIME LEFT:  2.00D  GRAD.:     2.277 HEAT: 32.37313
 CYCLE:    49 TIME:   0.010 TIME LEFT:  2.00D  GRAD.:     2.567 HEAT: 32.36162
 CYCLE:    50 TIME:   0.010 TIME LEFT:  2.00D  GRAD.:     2.236 HEAT: 32.35054
 CYCLE:    51 TIME:   0.010 TIME LEFT:  2.00D  GRAD.:     2.054 HEAT: 32.34078
 CYCLE:    52 TIME:   0.014 TIME LEFT:  2.00D  GRAD.:     1.952 HEAT: 32.33154
 CYCLE:    53 TIME:   0.011 TIME LEFT:  2.00D  GRAD.:     1.852 HEAT: 32.32364
 CYCLE:    54 TIME:   0.011 TIME LEFT:  2.00D  GRAD.:     1.536 HEAT: 32.31757
 CYCLE:    55 TIME:   0.010 TIME LEFT:  2.00D  GRAD.:     1.320 HEAT: 32.31298
 CYCLE:    56 TIME:   0.010 TIME LEFT:  2.00D  GRAD.:     1.306 HEAT: 32.30958
 CYCLE:    57 TIME:   0.015 TIME LEFT:  2.00D  GRAD.:     0.992 HEAT: 32.30703
 CYCLE:    58 TIME:   0.011 TIME LEFT:  2.00D  GRAD.:     0.879 HEAT: 32.30495
 CYCLE:    59 TIME:   0.013 TIME LEFT:  2.00D  GRAD.:     0.823 HEAT: 32.30321
 CYCLE:    60 TIME:   0.013 TIME LEFT:  2.00D  GRAD.:     0.838 HEAT: 32.30154
 CYCLE:    61 TIME:   0.011 TIME LEFT:  2.00D  GRAD.:     0.897 HEAT: 32.29977
 CYCLE:    62 TIME:   0.014 TIME LEFT:  2.00D  GRAD.:     0.986 HEAT: 32.29767
 CYCLE:    63 TIME:   0.013 TIME LEFT:  2.00D  GRAD.:     0.957 HEAT: 32.29561
 CYCLE:    64 TIME:   0.013 TIME LEFT:  2.00D  GRAD.:     0.795 HEAT: 32.29399
 CYCLE:    65 TIME:   0.012 TIME LEFT:  2.00D  GRAD.:     0.643 HEAT: 32.29292
 CYCLE:    66 TIME:   0.010 TIME LEFT:  2.00D  GRAD.:     0.609 HEAT: 32.29209
 CYCLE:    67 TIME:   0.016 TIME LEFT:  2.00D  GRAD.:     0.651 HEAT: 32.29114
 CYCLE:    68 TIME:   0.012 TIME LEFT:  2.00D  GRAD.:     0.663 HEAT: 32.29001
 CYCLE:    69 TIME:   0.013 TIME LEFT:  2.00D  GRAD.:     0.631 HEAT: 32.28882
 CYCLE:    70 TIME:   0.012 TIME LEFT:  2.00D  GRAD.:     0.531 HEAT: 32.28797
 CYCLE:    71 TIME:   0.011 TIME LEFT:  2.00D  GRAD.:     0.487 HEAT: 32.28735
 CYCLE:    72 TIME:   0.013 TIME LEFT:  2.00D  GRAD.:     0.504 HEAT: 32.28683
 CYCLE:    73 TIME:   0.012 TIME LEFT:  2.00D  GRAD.:     0.487 HEAT: 32.28625
 CYCLE:    74 TIME:   0.010 TIME LEFT:  2.00D  GRAD.:     0.443 HEAT: 32.28571
 CYCLE:    75 TIME:   0.010 TIME LEFT:  2.00D  GRAD.:     0.356 HEAT: 32.28535
 CYCLE:    76 TIME:   0.010 TIME LEFT:  2.00D  GRAD.:     0.321 HEAT: 32.28509
 CYCLE:    77 TIME:   0.011 TIME LEFT:  2.00D  GRAD.:     0.341 HEAT: 32.28482
 CYCLE:    78 TIME:   0.010 TIME LEFT:  2.00D  GRAD.:     0.360 HEAT: 32.28449
 CYCLE:    79 TIME:   0.011 TIME LEFT:  2.00D  GRAD.:     0.338 HEAT: 32.28416
 CYCLE:    80 TIME:   0.010 TIME LEFT:  2.00D  GRAD.:     0.291 HEAT: 32.28388
 CYCLE:    81 TIME:   0.011 TIME LEFT:  2.00D  GRAD.:     0.261 HEAT: 32.28368
 CYCLE:    82 TIME:   0.010 TIME LEFT:  2.00D  GRAD.:     0.248 HEAT: 32.28350
 CYCLE:    83 TIME:   0.010 TIME LEFT:  2.00D  GRAD.:     0.222 HEAT: 32.28337
 CYCLE:    84 TIME:   0.010 TIME LEFT:  2.00D  GRAD.:     0.183 HEAT: 32.28327
 CYCLE:    85 TIME:   0.010 TIME LEFT:  2.00D  GRAD.:     0.163 HEAT: 32.28318
 CYCLE:    86 TIME:   0.011 TIME LEFT:  2.00D  GRAD.:     0.145 HEAT: 32.28312
 CYCLE:    87 TIME:   0.010 TIME LEFT:  2.00D  GRAD.:     0.148 HEAT: 32.28304
 CYCLE:    88 TIME:   0.010 TIME LEFT:  2.00D  GRAD.:     0.197 HEAT: 32.28295
 CYCLE:    89 TIME:   0.010 TIME LEFT:  2.00D  GRAD.:     0.199 HEAT: 32.28289
 CYCLE:    90 TIME:   0.010 TIME LEFT:  2.00D  GRAD.:     0.294 HEAT: 32.28263
 CYCLE:    91 TIME:   0.010 TIME LEFT:  2.00D  GRAD.:     0.275 HEAT: 32.28251
 CYCLE:    92 TIME:   0.012 TIME LEFT:  2.00D  GRAD.:     0.386 HEAT: 32.28195
 CYCLE:    93 TIME:   0.010 TIME LEFT:  2.00D  GRAD.:     0.404 HEAT: 32.28167
 CYCLE:    94 TIME:   0.011 TIME LEFT:  2.00D  GRAD.:     0.326 HEAT: 32.28105
 CYCLE:    95 TIME:   0.010 TIME LEFT:  2.00D  GRAD.:     0.222 HEAT: 32.28090
 CYCLE:    96 TIME:   0.010 TIME LEFT:  2.00D  GRAD.:     0.201 HEAT: 32.28077
 CYCLE:    97 TIME:   0.011 TIME LEFT:  2.00D  GRAD.:     0.190 HEAT: 32.28064
 CYCLE:    98 TIME:   0.010 TIME LEFT:  2.00D  GRAD.:     0.189 HEAT: 32.28053
 CYCLE:    99 TIME:   0.011 TIME LEFT:  2.00D  GRAD.:     0.177 HEAT: 32.28041
 CYCLE:   100 TIME:   0.010 TIME LEFT:  2.00D  GRAD.:     0.187 HEAT: 32.28029
 CYCLE:   101 TIME:   0.010 TIME LEFT:  2.00D  GRAD.:     0.172 HEAT: 32.28022
 CYCLE:   102 TIME:   0.010 TIME LEFT:  2.00D  GRAD.:     0.180 HEAT: 32.28008
 CYCLE:   103 TIME:   0.010 TIME LEFT:  2.00D  GRAD.:     0.151 HEAT: 32.28003
 CYCLE:   104 TIME:   0.011 TIME LEFT:  2.00D  GRAD.:     0.291 HEAT: 32.27999
 CYCLE:   105 TIME:   0.010 TIME LEFT:  2.00D  GRAD.:     0.142 HEAT: 32.27990
 CYCLE:   106 TIME:   0.010 TIME LEFT:  2.00D  GRAD.:     0.097 HEAT: 32.27986
 CYCLE:   107 TIME:   0.010 TIME LEFT:  2.00D  GRAD.:     0.100 HEAT: 32.27981
 CYCLE:   108 TIME:   0.010 TIME LEFT:  2.00D  GRAD.:     0.104 HEAT: 32.27978
 CYCLE:   109 TIME:   0.010 TIME LEFT:  2.00D  GRAD.:     0.116 HEAT: 32.27975
 CYCLE:   110 TIME:   0.011 TIME LEFT:  2.00D  GRAD.:     0.160 HEAT: 32.27970
 CYCLE:   111 TIME:   0.012 TIME LEFT:  2.00D  GRAD.:     0.167 HEAT: 32.27964
 CYCLE:   112 TIME:   0.013 TIME LEFT:  2.00D  GRAD.:     0.197 HEAT: 32.27946
 CYCLE:   113 TIME:   0.012 TIME LEFT:  2.00D  GRAD.:     0.252 HEAT: 32.27932
 CYCLE:   114 TIME:   0.013 TIME LEFT:  2.00D  GRAD.:     0.248 HEAT: 32.27906
 CYCLE:   115 TIME:   0.011 TIME LEFT:  2.00D  GRAD.:     0.210 HEAT: 32.27886
 CYCLE:   116 TIME:   0.012 TIME LEFT:  2.00D  GRAD.:     0.165 HEAT: 32.27881
 CYCLE:   117 TIME:   0.012 TIME LEFT:  2.00D  GRAD.:     0.247 HEAT: 32.27869
 CYCLE:   118 TIME:   0.011 TIME LEFT:  2.00D  GRAD.:     0.152 HEAT: 32.27862
 CYCLE:   119 TIME:   0.013 TIME LEFT:  2.00D  GRAD.:     0.175 HEAT: 32.27853
 CYCLE:   120 TIME:   0.011 TIME LEFT:  2.00D  GRAD.:     0.143 HEAT: 32.27849
 CYCLE:   121 TIME:   0.012 TIME LEFT:  2.00D  GRAD.:     0.111 HEAT: 32.27841
 CYCLE:   122 TIME:   0.010 TIME LEFT:  2.00D  GRAD.:     0.070 HEAT: 32.27839
 CYCLE:   123 TIME:   0.011 TIME LEFT:  2.00D  GRAD.:     0.101 HEAT: 32.27837
 CYCLE:   124 TIME:   0.010 TIME LEFT:  2.00D  GRAD.:     0.039 HEAT: 32.27836

     RMS GRADIENT =  0.03935  IS LESS THAN CUTOFF =  0.05000



 -------------------------------------------------------------------------------
pm3  precise nosym
 InChI=1S/C11H16/c1-3-7-10(4-2)11-8-5-6-9-11/h3,5-6,8-11H,1,4,7H2,2H3



     GEOMETRY OPTIMISED USING EIGENVECTOR FOLLOWING (EF).     
     SCF FIELD WAS ACHIEVED                                   


                              PM3 CALCULATION
                                                       MOPAC2012 (Version: 13.159M)
                                                       Mon Jun  2 11:12:25 2014
                                                       No. of days left =   6




          FINAL HEAT OF FORMATION =         32.27836 KCAL/MOL =     135.05267 KJ/MOL


          TOTAL ENERGY            =      -1548.96771 EV
          ELECTRONIC ENERGY       =      -9234.83082 EV  POINT GROUP:     C1  
          CORE-CORE REPULSION     =       7685.86311 EV
          COSMO AREA              =        208.34 SQUARE ANGSTROMS
          COSMO VOLUME            =        219.81 CUBIC ANGSTROMS

          GRADIENT NORM           =          0.03935
          IONIZATION POTENTIAL    =          9.233147 EV
          HOMO LUMO ENERGIES (EV) =         -9.233  0.287
          NO. OF FILLED LEVELS    =         30
          MOLECULAR WEIGHT        =        148.247

          MOLECULAR DIMENSIONS (Angstroms)

            Atom       Atom       Distance
            H    25    H    19     7.35142
            H    27    H    18     6.68908
            H    22    H    24     4.22479


          SCF CALCULATIONS        =        136
          COMPUTATION TIME        =          1.490 SECONDS




   ATOM   CHEMICAL          X               Y               Z
  NUMBER   SYMBOL      (ANGSTROMS)     (ANGSTROMS)     (ANGSTROMS)
 
     1       C          0.31571908  *   0.36111830  *  -0.26618727  *
     2       C         -1.19488450  *   0.39986782  *  -0.51395407  *
     3       C          0.69880512  *   1.33008155  *   0.85596328  *
     4       C          0.79899385  *  -1.05463148  *   0.05299103  *
     5       C          0.43976094  *   2.76937232  *   0.46946938  *
     6       C         -2.03879250  *  -0.33300328  *   0.50139719  *
     7       C         -1.60958202  *  -0.25323599  *  -1.81067180  *
     8       C          2.28302042  *  -1.16159266  *   0.01272575  *
     9       C         -2.84134309  *  -1.21796523  *  -0.12976435  *
    10       C         -2.57251248  *  -1.16978991  *  -1.56973968  *
    11       C          2.99020089  *  -1.78774355  *   0.94624578  *
    12       H          0.81278405  *   0.70208871  *  -1.20968930  *
    13       H         -1.51552678  *   1.47807156  *  -0.52923635  *
    14       H          0.13723486  *   1.07527788  *   1.77746702  *
    15       H          1.76891699  *   1.18891332  *   1.10839463  *
    16       H          0.37913034  *  -1.76158429  *  -0.69240292  *
    17       H          0.39589205  *  -1.37732368  *   1.03501102  *
    18       H         -0.59620951  *   2.89549547  *   0.11037673  *
    19       H          0.58577470  *   3.44724824  *   1.31890804  *
    20       H          1.10611893  *   3.10117610  *  -0.33736647  *
    21       H         -1.97316042  *  -0.12992307  *   1.56862595  *
    22       H         -1.16769418  *   0.01961827  *  -2.76660478  *
    23       H          2.77495484  *  -0.70085515  *  -0.85296794  *
    24       H         -3.58002035  *  -1.87946323  *   0.31831694  *
    25       H         -3.09087365  *  -1.79311470  *  -2.29553671  *
    26       H          2.54301234  *  -2.25332644  *   1.82038470  *
    27       H          4.07076774  *  -1.88035544  *   0.89825786  *

           Empirical Formula: C11 H16  =    27 atoms



      MOLECULAR POINT GROUP   :   C1  


                  EIGENVALUES  
 -41.91664 -36.62707 -33.69214 -29.02821 -27.35650 -25.95135 -23.10010 -20.82735
 -19.86263 -18.90374 -18.31663 -17.78611 -16.39197 -15.79233 -15.27589 -15.12448
 -14.63062 -13.94455 -13.73237 -13.38976 -13.04822 -12.91577 -12.82536 -12.23852
 -12.05576 -11.95065 -11.50681 -10.83341 -10.07874  -9.23315   0.28652   1.17566
   2.00298   3.18390   3.32283   3.38779   3.48061   3.62416   3.71175   3.82313
   3.84383   3.97815   4.04458   4.09664   4.15415   4.22300   4.29087   4.33508
   4.50914   4.62145   4.66820   4.72203   4.98919   5.02332   5.05408   5.64686
   5.76783   5.79699   5.90552   6.14317


              NET ATOMIC CHARGES AND DIPOLE CONTRIBUTIONS

  ATOM NO.   TYPE          CHARGE      No. of ELECS.   s-Pop       p-Pop       
    1          C          -0.044496        4.0445     1.17556     2.86893
    2          C          -0.048993        4.0490     1.17097     2.87802
    3          C          -0.109558        4.1096     1.16322     2.94634
    4          C          -0.078597        4.0786     1.15335     2.92524
    5          C          -0.116438        4.1164     1.14049     2.97595
    6          C          -0.153401        4.1534     1.20807     2.94533
    7          C          -0.157813        4.1578     1.20923     2.94858
    8          C          -0.133983        4.1340     1.19531     2.93868
    9          C          -0.122592        4.1226     1.19263     2.92996
   10          C          -0.119824        4.1198     1.19252     2.92730
   11          C          -0.170641        4.1706     1.18281     2.98783
   12          H           0.065697        0.9343     0.93430
   13          H           0.102543        0.8975     0.89746
   14          H           0.053744        0.9463     0.94626
   15          H           0.060058        0.9399     0.93994
   16          H           0.068687        0.9313     0.93131
   17          H           0.062813        0.9372     0.93719
   18          H           0.041813        0.9582     0.95819
   19          H           0.040933        0.9591     0.95907
   20          H           0.038973        0.9610     0.96103
   21          H           0.118416        0.8816     0.88158
   22          H           0.116942        0.8831     0.88306
   23          H           0.096579        0.9034     0.90342
   24          H           0.114057        0.8859     0.88594
   25          H           0.113963        0.8860     0.88604
   26          H           0.082065        0.9179     0.91794
   27          H           0.079052        0.9209     0.92095
 DIPOLE           X         Y         Z       TOTAL
 POINT-CHG.     0.161     0.430     0.001     0.460
 HYBRID        -0.063     0.035    -0.019     0.074
 SUM            0.098     0.466    -0.017     0.477


          ATOMIC ORBITAL ELECTRON POPULATIONS

    Atom      s        px        py        pz   
    1  C   1.17556   0.92844   0.95333   0.98716
    2  C   1.17097   0.95027   0.99949   0.92826
    3  C   1.16322   1.02030   0.94697   0.97907
    4  C   1.15335   0.93501   0.96293   1.02730
    5  C   1.14049   1.00892   0.95936   1.00767
    6  C   1.20807   0.98746   0.97767   0.98020
    7  C   1.20923   0.99228   0.98231   0.97398
    8  C   1.19531   0.96197   0.99107   0.98563
    9  C   1.19263   0.99553   0.98914   0.94530
   10  C   1.19252   0.98509   0.98639   0.95582
   11  C   1.18281   0.99457   1.00596   0.98730
   12  H   0.93430
   13  H   0.89746
   14  H   0.94626
   15  H   0.93994
   16  H   0.93131
   17  H   0.93719
   18  H   0.95819
   19  H   0.95907
   20  H   0.96103
   21  H   0.88158
   22  H   0.88306
   23  H   0.90342
   24  H   0.88594
   25  H   0.88604
   26  H   0.91794
   27  H   0.92095
 *******************************************************************************
 ** Site#: 14399           For non-commercial use only        Version 13.159M **
 *******************************************************************************
 ** Cite this work as: MOPAC2012, James J. P. Stewart, Stewart Computational  **
 ** Chemistry, Version 13.159M web: HTTP://OpenMOPAC.net  Days remaining:   6 **
 *******************************************************************************
 **                                                                           **
 **                                MOPAC2012                                  **
 **                                                                           **
 *******************************************************************************

                            PM3 CALCULATION RESULTS


 *******************************************************************************
 *  CALCULATION DONE:                                Mon Jun  2 11:12:25 2014  *
 *  PM3      - The PM3 Hamiltonian to be used
 *  OLDGEO   - PREVIOUS GEOMETRY TO BE USED
 *  PRECISE  - CRITERIA TO BE INCREASED BY 100 TIMES
 *  NOSYM    - POINT-GROUP SYMMETRY SET TO C1
 *  T=       - A TIME OF 172800.0 SECONDS REQUESTED
 *  DUMP=N   - RESTART FILE WRITTEN EVERY  7200.000 SECONDS
 *  THERMO   - THERMODYNAMIC QUANTITIES TO BE CALCULATED
 *******************************************************************************
oldgeo thermo nosym precise  pm3

   ATOM   CHEMICAL          X               Y               Z
  NUMBER   SYMBOL      (ANGSTROMS)     (ANGSTROMS)     (ANGSTROMS)
 
     1       C          0.31571908  *   0.36111830  *  -0.26618727  *
     2       C         -1.19488450  *   0.39986782  *  -0.51395407  *
     3       C          0.69880512  *   1.33008155  *   0.85596328  *
     4       C          0.79899385  *  -1.05463148  *   0.05299103  *
     5       C          0.43976094  *   2.76937232  *   0.46946938  *
     6       C         -2.03879250  *  -0.33300328  *   0.50139719  *
     7       C         -1.60958202  *  -0.25323599  *  -1.81067180  *
     8       C          2.28302042  *  -1.16159266  *   0.01272575  *
     9       C         -2.84134309  *  -1.21796523  *  -0.12976435  *
    10       C         -2.57251248  *  -1.16978991  *  -1.56973968  *
    11       C          2.99020089  *  -1.78774355  *   0.94624578  *
    12       H          0.81278405  *   0.70208871  *  -1.20968930  *
    13       H         -1.51552678  *   1.47807156  *  -0.52923635  *
    14       H          0.13723486  *   1.07527788  *   1.77746702  *
    15       H          1.76891699  *   1.18891332  *   1.10839463  *
    16       H          0.37913034  *  -1.76158429  *  -0.69240292  *
    17       H          0.39589205  *  -1.37732368  *   1.03501102  *
    18       H         -0.59620951  *   2.89549547  *   0.11037673  *
    19       H          0.58577470  *   3.44724824  *   1.31890804  *
    20       H          1.10611893  *   3.10117610  *  -0.33736647  *
    21       H         -1.97316042  *  -0.12992307  *   1.56862595  *
    22       H         -1.16769418  *   0.01961827  *  -2.76660478  *
    23       H          2.77495484  *  -0.70085515  *  -0.85296794  *
    24       H         -3.58002035  *  -1.87946323  *   0.31831694  *
    25       H         -3.09087365  *  -1.79311470  *  -2.29553671  *
    26       H          2.54301234  *  -2.25332644  *   1.82038470  *
    27       H          4.07076774  *  -1.88035544  *   0.89825786  *
 


          CARTESIAN COORDINATES 

    NO.       ATOM         X         Y         Z

     1         C        0.3157    0.3611   -0.2662
     2         C       -1.1949    0.3999   -0.5140
     3         C        0.6988    1.3301    0.8560
     4         C        0.7990   -1.0546    0.0530
     5         C        0.4398    2.7694    0.4695
     6         C       -2.0388   -0.3330    0.5014
     7         C       -1.6096   -0.2532   -1.8107
     8         C        2.2830   -1.1616    0.0127
     9         C       -2.8413   -1.2180   -0.1298
    10         C       -2.5725   -1.1698   -1.5697
    11         C        2.9902   -1.7877    0.9462
    12         H        0.8128    0.7021   -1.2097
    13         H       -1.5155    1.4781   -0.5292
    14         H        0.1372    1.0753    1.7775
    15         H        1.7689    1.1889    1.1084
    16         H        0.3791   -1.7616   -0.6924
    17         H        0.3959   -1.3773    1.0350
    18         H       -0.5962    2.8955    0.1104
    19         H        0.5858    3.4472    1.3189
    20         H        1.1061    3.1012   -0.3374
    21         H       -1.9732   -0.1299    1.5686
    22         H       -1.1677    0.0196   -2.7666
    23         H        2.7750   -0.7009   -0.8530
    24         H       -3.5800   -1.8795    0.3183
    25         H       -3.0909   -1.7931   -2.2955
    26         H        2.5430   -2.2533    1.8204
    27         H        4.0708   -1.8804    0.8983

  H: (PM3): J. J. P. STEWART, J. COMP. CHEM. 10, 209 (1989).
  C: (PM3): J. J. P. STEWART, J. COMP. CHEM. 10, 209 (1989).

           Empirical Formula: C11 H16  =    27 atoms



      MOLECULAR POINT GROUP   :   C1  


      RHF CALCULATION, NO. OF DOUBLY OCCUPIED LEVELS =   30



          HEAT OF FORMATION =      32.278363 KCALS/MOLE


          INTERNAL COORDINATE DERIVATIVES

   NUMBER  ATOM       BOND         ANGLE      DIHEDRAL

     1       C     -0.003164    -0.001354    -0.002093
     2       C      0.002925    -0.006836    -0.004582
     3       C     -0.001585    -0.001247    -0.000572
     4       C     -0.001014    -0.000164    -0.000656
     5       C      0.005281    -0.001783     0.002626
     6       C      0.008324     0.009037     0.001225
     7       C     -0.002286     0.003059     0.001825
     8       C      0.000227    -0.009101     0.004306
     9       C      0.007700    -0.009266     0.004467
    10       C      0.003622     0.004214    -0.007026
    11       C     -0.002761     0.010113    -0.003741
    12       H     -0.009049    -0.003751    -0.004442
    13       H      0.000681    -0.001923     0.001261
    14       H     -0.005868    -0.000902     0.001902
    15       H     -0.006197     0.001794     0.001080
    16       H      0.004831     0.001072     0.000128
    17       H     -0.000825    -0.004008    -0.002014
    18       H      0.001635    -0.002199    -0.002043
    19       H     -0.004059    -0.005019     0.003852
    20       H      0.008948     0.009506    -0.002609
    21       H     -0.005754    -0.006046    -0.001722
    22       H     -0.001685     0.004344     0.002915
    23       H     -0.008130     0.004360    -0.002067
    24       H      0.000838    -0.000810    -0.001712
    25       H      0.007040     0.004464     0.004195
    26       H     -0.002229     0.005932     0.009758
    27       H      0.002554    -0.003486    -0.004261


          GRADIENT NORM =   0.04156


          TIME FOR SCF CALCULATION =    0.01

          TIME FOR DERIVATIVES     =    0.01

          MOLECULAR WEIGHT =  148.25



          ROTATIONAL CONSTANTS IN CM(-1)

          A =    0.04721382   B =    0.02612797   C =    0.01995283



           PRINCIPAL MOMENTS OF INERTIA IN UNITS OF 10**(-40)*GRAM-CM**2

          A =      592.8937   B =     1071.3721   C =     1402.9475


          ORIENTATION OF MOLECULE IN FORCE CALCULATION

    NO.       ATOM         X         Y         Z

     1          C      -0.4734    0.1890    0.5502
     2          C       1.0579    0.1890    0.5502
     3          C      -1.0083    1.6238    0.5502
     4          C      -1.0376   -0.5988   -0.6334
     5          C      -0.6538    2.3566    1.8251
     6          C       1.7076    0.5051   -0.7758
     7          C       1.6603   -1.1523    0.8936
     8          C      -2.4978   -0.8507   -0.4926
     9          C       2.5790   -0.4755   -1.0992
    10          C       2.5480   -1.5089   -0.0603
    11          C      -3.3623   -0.6770   -1.4856
    12          H      -0.8024   -0.3086    1.4976
    13          H       1.4040    0.9486    1.3044
    14          H      -0.6099    2.1711   -0.3280
    15          H      -2.1084    1.6015    0.4156
    16          H      -0.5207   -1.5785   -0.7008
    17          H      -0.8070   -0.0703   -1.5813
    18          H       0.4295    2.2882    2.0249
    19          H      -0.9182    3.4191    1.7661
    20          H      -1.1722    1.9343    2.6958
    21          H       1.4753    1.4078   -1.3376
    22          H       1.3860   -1.7000    1.7927
    23          H      -2.8313   -1.2096    0.4890
    24          H       3.2185   -0.5306   -1.9778
    25          H       3.1611   -2.4074   -0.0928
    26          H      -3.0744   -0.3198   -2.4707
    27          H      -4.4229   -0.8840   -1.3813


    FIRST DERIVATIVES WILL BE USED IN THE CALCULATION OF SECOND DERIVATIVES

          ESTIMATED TIME TO COMPLETE CALCULATION =        5.21 SECONDS

    FOR POINT-GROUP C1   THERE ARE   1 UNIQUE SYMMETRY FUNCTIONS.

 STEP:   1 TIME =     0.05 SECS, INTEGRAL =      0.05 TIME LEFT: 172799.94
 STEP:   2 TIME =     0.05 SECS, INTEGRAL =      0.10 TIME LEFT: 172799.89
 STEP:   3 TIME =     0.05 SECS, INTEGRAL =      0.15 TIME LEFT: 172799.84
 STEP:   4 TIME =     0.05 SECS, INTEGRAL =      0.19 TIME LEFT: 172799.79
 STEP:   5 TIME =     0.05 SECS, INTEGRAL =      0.24 TIME LEFT: 172799.74
 STEP:   6 TIME =     0.05 SECS, INTEGRAL =      0.29 TIME LEFT: 172799.70
 STEP:   7 TIME =     0.05 SECS, INTEGRAL =      0.33 TIME LEFT: 172799.65
 STEP:   8 TIME =     0.05 SECS, INTEGRAL =      0.38 TIME LEFT: 172799.60
 STEP:   9 TIME =     0.05 SECS, INTEGRAL =      0.43 TIME LEFT: 172799.56
 STEP:  10 TIME =     0.05 SECS, INTEGRAL =      0.47 TIME LEFT: 172799.51
 STEP:  11 TIME =     0.05 SECS, INTEGRAL =      0.52 TIME LEFT: 172799.46
 STEP:  12 TIME =     0.04 SECS, INTEGRAL =      0.57 TIME LEFT: 172799.42
 STEP:  13 TIME =     0.06 SECS, INTEGRAL =      0.62 TIME LEFT: 172799.36
 STEP:  14 TIME =     0.04 SECS, INTEGRAL =      0.67 TIME LEFT: 172799.32
 STEP:  15 TIME =     0.04 SECS, INTEGRAL =      0.71 TIME LEFT: 172799.27
 STEP:  16 TIME =     0.05 SECS, INTEGRAL =      0.76 TIME LEFT: 172799.22
 STEP:  17 TIME =     0.05 SECS, INTEGRAL =      0.81 TIME LEFT: 172799.18
 STEP:  18 TIME =     0.05 SECS, INTEGRAL =      0.85 TIME LEFT: 172799.13
 STEP:  19 TIME =     0.05 SECS, INTEGRAL =      0.90 TIME LEFT: 172799.09
 STEP:  20 TIME =     0.05 SECS, INTEGRAL =      0.95 TIME LEFT: 172799.04
 STEP:  21 TIME =     0.05 SECS, INTEGRAL =      0.99 TIME LEFT: 172798.99
 STEP:  22 TIME =     0.04 SECS, INTEGRAL =      1.04 TIME LEFT: 172798.95
 STEP:  23 TIME =     0.05 SECS, INTEGRAL =      1.09 TIME LEFT: 172798.90
 STEP:  24 TIME =     0.05 SECS, INTEGRAL =      1.14 TIME LEFT: 172798.85
 STEP:  25 TIME =     0.05 SECS, INTEGRAL =      1.19 TIME LEFT: 172798.79
 STEP:  26 TIME =     0.05 SECS, INTEGRAL =      1.24 TIME LEFT: 172798.74
 STEP:  27 TIME =     0.05 SECS, INTEGRAL =      1.29 TIME LEFT: 172798.69
 STEP:  28 TIME =     0.05 SECS, INTEGRAL =      1.34 TIME LEFT: 172798.64
 STEP:  29 TIME =     0.05 SECS, INTEGRAL =      1.39 TIME LEFT: 172798.60
 STEP:  30 TIME =     0.05 SECS, INTEGRAL =      1.44 TIME LEFT: 172798.55
 STEP:  31 TIME =     0.04 SECS, INTEGRAL =      1.48 TIME LEFT: 172798.50
 STEP:  32 TIME =     0.05 SECS, INTEGRAL =      1.53 TIME LEFT: 172798.45
 STEP:  33 TIME =     0.05 SECS, INTEGRAL =      1.58 TIME LEFT: 172798.41
 STEP:  34 TIME =     0.05 SECS, INTEGRAL =      1.63 TIME LEFT: 172798.36
 STEP:  35 TIME =     0.05 SECS, INTEGRAL =      1.67 TIME LEFT: 172798.31
 STEP:  36 TIME =     0.05 SECS, INTEGRAL =      1.72 TIME LEFT: 172798.26
 STEP:  37 TIME =     0.05 SECS, INTEGRAL =      1.77 TIME LEFT: 172798.21
 STEP:  38 TIME =     0.05 SECS, INTEGRAL =      1.82 TIME LEFT: 172798.17
 STEP:  39 TIME =     0.05 SECS, INTEGRAL =      1.86 TIME LEFT: 172798.12
 STEP:  40 TIME =     0.05 SECS, INTEGRAL =      1.91 TIME LEFT: 172798.08
 STEP:  41 TIME =     0.05 SECS, INTEGRAL =      1.95 TIME LEFT: 172798.03
 STEP:  42 TIME =     0.05 SECS, INTEGRAL =      2.00 TIME LEFT: 172797.98
 STEP:  43 TIME =     0.04 SECS, INTEGRAL =      2.04 TIME LEFT: 172797.94
 STEP:  44 TIME =     0.05 SECS, INTEGRAL =      2.09 TIME LEFT: 172797.89
 STEP:  45 TIME =     0.05 SECS, INTEGRAL =      2.14 TIME LEFT: 172797.84
 STEP:  46 TIME =     0.05 SECS, INTEGRAL =      2.19 TIME LEFT: 172797.79
 STEP:  47 TIME =     0.04 SECS, INTEGRAL =      2.24 TIME LEFT: 172797.75
 STEP:  48 TIME =     0.05 SECS, INTEGRAL =      2.28 TIME LEFT: 172797.70
 STEP:  49 TIME =     0.05 SECS, INTEGRAL =      2.33 TIME LEFT: 172797.65
 STEP:  50 TIME =     0.05 SECS, INTEGRAL =      2.38 TIME LEFT: 172797.61
 STEP:  51 TIME =     0.05 SECS, INTEGRAL =      2.42 TIME LEFT: 172797.56
 STEP:  52 TIME =     0.04 SECS, INTEGRAL =      2.46 TIME LEFT: 172797.52
 STEP:  53 TIME =     0.05 SECS, INTEGRAL =      2.51 TIME LEFT: 172797.47
 STEP:  54 TIME =     0.05 SECS, INTEGRAL =      2.56 TIME LEFT: 172797.43
 STEP:  55 TIME =     0.05 SECS, INTEGRAL =      2.60 TIME LEFT: 172797.38
 STEP:  56 TIME =     0.04 SECS, INTEGRAL =      2.65 TIME LEFT: 172797.34
 STEP:  57 TIME =     0.05 SECS, INTEGRAL =      2.70 TIME LEFT: 172797.28
 STEP:  58 TIME =     0.05 SECS, INTEGRAL =      2.75 TIME LEFT: 172797.24
 STEP:  59 TIME =     0.05 SECS, INTEGRAL =      2.79 TIME LEFT: 172797.19
 STEP:  60 TIME =     0.05 SECS, INTEGRAL =      2.85 TIME LEFT: 172797.14
 STEP:  61 TIME =     0.05 SECS, INTEGRAL =      2.90 TIME LEFT: 172797.09
 STEP:  62 TIME =     0.05 SECS, INTEGRAL =      2.95 TIME LEFT: 172797.04
 STEP:  63 TIME =     0.05 SECS, INTEGRAL =      3.00 TIME LEFT: 172796.99
 STEP:  64 TIME =     0.06 SECS, INTEGRAL =      3.05 TIME LEFT: 172796.93
 STEP:  65 TIME =     0.05 SECS, INTEGRAL =      3.10 TIME LEFT: 172796.88
 STEP:  66 TIME =     0.05 SECS, INTEGRAL =      3.15 TIME LEFT: 172796.83
 STEP:  67 TIME =     0.05 SECS, INTEGRAL =      3.20 TIME LEFT: 172796.78
 STEP:  68 TIME =     0.05 SECS, INTEGRAL =      3.25 TIME LEFT: 172796.73
 STEP:  69 TIME =     0.05 SECS, INTEGRAL =      3.30 TIME LEFT: 172796.68
 STEP:  70 TIME =     0.05 SECS, INTEGRAL =      3.36 TIME LEFT: 172796.63
 STEP:  71 TIME =     0.06 SECS, INTEGRAL =      3.41 TIME LEFT: 172796.57
 STEP:  72 TIME =     0.04 SECS, INTEGRAL =      3.46 TIME LEFT: 172796.53
 STEP:  73 TIME =     0.05 SECS, INTEGRAL =      3.50 TIME LEFT: 172796.48
 STEP:  74 TIME =     0.05 SECS, INTEGRAL =      3.55 TIME LEFT: 172796.43
 STEP:  75 TIME =     0.05 SECS, INTEGRAL =      3.60 TIME LEFT: 172796.39
 STEP:  76 TIME =     0.06 SECS, INTEGRAL =      3.66 TIME LEFT: 172796.33
 STEP:  77 TIME =     0.06 SECS, INTEGRAL =      3.71 TIME LEFT: 172796.27
 STEP:  78 TIME =     0.05 SECS, INTEGRAL =      3.76 TIME LEFT: 172796.22
 STEP:  79 TIME =     0.05 SECS, INTEGRAL =      3.81 TIME LEFT: 172796.18
 STEP:  80 TIME =     0.05 SECS, INTEGRAL =      3.86 TIME LEFT: 172796.13
 STEP:  81 TIME =     0.05 SECS, INTEGRAL =      3.91 TIME LEFT: 172796.08

(To convert to Hartree/Bohr^2, multiply by (10^(-21) x N x a0^2)/(4.184 x 627.51) = 0.0642)


           FORCE MATRIX IN MILLIDYNES/ANGSTROM


                  C  1       C  2       C  3       C  4       C  5       C  6
 ------------------------------------------------------------------------------
     C    1  14.111175
     C    2   3.692435  14.751948
     C    3   3.809882   0.631329  14.314936
     C    4   3.858899   0.595891   0.628505  14.636856
     C    5   0.637373   0.086066   4.442674   0.051697  14.334335
     C    6   0.556854   4.136971   0.034445   0.056832   0.004250  17.864303
     C    7   0.582996   4.138953   0.046731   0.046154   0.006121   1.098092
     C    8   0.665997   0.049793   0.054228   4.940125   0.003710   0.006724
     C    9   0.054610   1.218273   0.007947   0.016929   0.001897   9.748874
     C   10   0.051601   1.216830   0.009942   0.013056   0.002694   1.577531
     C   11   0.042249   0.008492   0.007226   0.836064   0.002078   0.002101
     H   12   4.151094   0.420242   0.427597   0.427976   0.033919   0.043511
     H   13   0.434079   3.955438   0.058031   0.044392   0.103430   0.382343
     H   14   0.449131   0.024433   4.431724   0.019702   0.437189   0.010923
     H   15   0.438360   0.048693   4.452630   0.045370   0.435387   0.003131
     H   16   0.445082   0.040038   0.047168   4.401422   0.008920   0.004604
     H   17   0.446285   0.017707   0.027603   4.414431   0.001687   0.011513
     H   18   0.031166   0.090509   0.463531   0.002076   4.536392   0.003517
     H   19   0.050357   0.006685   0.449541   0.009099   4.781784   0.001464
     H   20   0.019231   0.003131   0.461648   0.001354   4.737422   0.001056
     H   21   0.009199   0.404318   0.011728   0.008478   0.001657   5.056956
     H   22   0.014516   0.403907   0.001957   0.002676   0.000752   0.041592
     H   23   0.030615   0.002910   0.005292   0.431980   0.000901   0.001318
     H   24   0.015288   0.111719   0.000723   0.001221   0.000369   0.446486
     H   25   0.015321   0.111833   0.002296   0.000840   0.000486   0.049188
     H   26   0.009646   0.001983   0.000629   0.096755   0.000728   0.000661
     H   27   0.016297   0.002224   0.000888   0.136689   0.000371   0.000822


                  C  7       C  8       C  9       C 10       C 11       H 12
 ------------------------------------------------------------------------------
     C    7  17.896824
     C    8   0.006763  18.166646
     C    9   1.579628   0.002052  18.299064
     C   10   9.756826   0.004342   5.152471  18.307279
     C   11   0.003140  11.065114   0.003305   0.001585  18.030774
     H   12   0.038050   0.042979   0.006969   0.005772   0.002202   4.636337
     H   13   0.388082   0.007732   0.050941   0.050905   0.001903   0.026467
     H   14   0.001224   0.002324   0.001759   0.000796   0.000675   0.043202
     H   15   0.008336   0.018113   0.001343   0.001822   0.006840   0.023824
     H   16   0.012951   0.406327   0.003369   0.006619   0.031925   0.023765
     H   17   0.002496   0.457036   0.004440   0.001106   0.046079   0.041598
     H   18   0.004882   0.000736   0.002409   0.002446   0.000633   0.002960
     H   19   0.001553   0.000937   0.001022   0.001001   0.000616   0.001988
     H   20   0.000968   0.000505   0.000549   0.000501   0.000319   0.017675
     H   21   0.042279   0.001146   0.442412   0.100057   0.000745   0.001842
     H   22   5.073410   0.001335   0.099476   0.442403   0.000801   0.014105
     H   23   0.000981   4.778366   0.000728   0.000623   0.453530   0.029057
     H   24   0.049255   0.000599   5.071555   0.419112   0.000991   0.002439
     H   25   0.446681   0.000835   0.418956   5.071563   0.000680   0.000658
     H   26   0.000489   0.489916   0.000553   0.000618   5.074269   0.000655
     H   27   0.000551   0.462185   0.000756   0.000784   5.108488   0.000649


                  H 13       H 14       H 15       H 16       H 17       H 18
 ------------------------------------------------------------------------------
     H   13   4.509058
     H   14   0.004607   5.051878
     H   15   0.002699   0.564675   5.062276
     H   16   0.002124   0.001307   0.002065   4.989958
     H   17   0.001018   0.017094   0.003307   0.558247   5.027495
     H   18   0.122278   0.020520   0.047394   0.000341   0.000467   5.313830
     H   19   0.003465   0.033751   0.023973   0.001746   0.000531   0.551779
     H   20   0.001514   0.046673   0.028901   0.000336   0.000428   0.565944
     H   21   0.011955   0.020497   0.001047   0.001003   0.006999   0.000755
     H   22   0.011176   0.000663   0.000450   0.001678   0.000712   0.000465
     H   23   0.000418   0.000654   0.003062   0.016619   0.038357   0.000347
     H   24   0.014189   0.000373   0.000153   0.000567   0.000793   0.000254
     H   25   0.014170   0.000152   0.000531   0.000983   0.000210   0.000318
     H   26   0.000442   0.000304   0.000729   0.011797   0.028357   0.000334
     H   27   0.000451   0.000233   0.000699   0.017522   0.003568   0.000156


                  H 19       H 20       H 21       H 22       H 23       H 24
 ------------------------------------------------------------------------------
     H   19   5.501753
     H   20   0.570357   5.471984
     H   21   0.000568   0.000605   5.459859
     H   22   0.000254   0.000194   0.010252   5.474307
     H   23   0.000227   0.000237   0.000498   0.000658   5.153576
     H   24   0.000111   0.000144   0.040938   0.005387   0.000199   5.462864
     H   25   0.000124   0.000140   0.005312   0.041172   0.000288   0.009620
     H   26   0.000232   0.000148   0.000464   0.000161   0.116898   0.000231
     H   27   0.000225   0.000135   0.000163   0.000260   0.079464   0.000224


                  H 25       H 26       H 27
 ------------------------------------------
     H   25   5.462355
     H   26   0.000163   5.470142
     H   27   0.000227   0.423346   5.498421


          HEAT OF FORMATION =      32.278363 KCALS/MOLE

          ZERO POINT ENERGY     149.070 KCAL/MOL


           NORMAL COORDINATE ANALYSIS (Total motion = 1 Angstrom)


   Root No.       1         2         3         4         5         6         7         8

                 1 A       2 A       3 A       4 A       5 A       6 A       7 A       8 A   

                  66.5      80.3      91.3     121.6     139.3     211.5     245.3     249.8
  
           1    0.0003   -0.0037   -0.0018   -0.0097   -0.0089   -0.0092    0.0097    0.0013
           2   -0.0206   -0.0030    0.0023   -0.0100   -0.0064   -0.0004   -0.0160    0.0057
           3    0.0060    0.0127   -0.0206   -0.0037    0.0025    0.0084    0.0026    0.0045
           4    0.0003   -0.0039   -0.0023   -0.0102   -0.0089   -0.0091    0.0102    0.0018
           5   -0.0044   -0.0138   -0.0073   -0.0165   -0.0008   -0.0130   -0.0079    0.0073
           6   -0.0010    0.0218   -0.0024   -0.0125    0.0039    0.0054    0.0185   -0.0215
           7   -0.0135    0.0050    0.0076   -0.0001   -0.0199    0.0228   -0.0118   -0.0310
           8   -0.0256    0.0001    0.0059   -0.0058   -0.0105    0.0129   -0.0233   -0.0070
           9   -0.0119   -0.0114   -0.0225    0.0070    0.0200   -0.0029    0.0044    0.0247
          10    0.0018    0.0012   -0.0034   -0.0305    0.0040   -0.0060    0.0059    0.0018
          11   -0.0419   -0.0162    0.0089    0.0010    0.0100    0.0037    0.0209    0.0002
          12    0.0196    0.0191   -0.0243   -0.0011   -0.0161    0.0035   -0.0228    0.0090
          13   -0.0169    0.0164   -0.0127    0.0302    0.0428    0.0091   -0.0147   -0.0080
          14   -0.0047    0.0241   -0.0067   -0.0031    0.0170    0.0071    0.0103    0.0154
          15   -0.0233   -0.0284   -0.0097   -0.0029   -0.0131    0.0052   -0.0165    0.0062
          16   -0.0082    0.0040    0.0216   -0.0004   -0.0117   -0.0277   -0.0009    0.0190
          17   -0.0028    0.0261    0.0071   -0.0066   -0.0019   -0.0097   -0.0004   -0.0039
          18   -0.0049    0.0350    0.0132   -0.0048    0.0025   -0.0031    0.0156   -0.0169
          19    0.0189   -0.0150   -0.0122    0.0054   -0.0037    0.0107    0.0259   -0.0181
          20    0.0053   -0.0299   -0.0132   -0.0072    0.0028   -0.0037   -0.0038   -0.0015
          21    0.0039   -0.0210   -0.0081   -0.0059    0.0080    0.0041    0.0124   -0.0173
          22   -0.0076   -0.0020    0.0042   -0.0358    0.0110   -0.0025    0.0055    0.0030
          23    0.0029   -0.0035   -0.0214    0.0285   -0.0303   -0.0206    0.0285   -0.0044
          24    0.0045    0.0069    0.0063    0.0020   -0.0187   -0.0088   -0.0042    0.0049
          25    0.0046   -0.0022    0.0284    0.0366   -0.0071   -0.0123   -0.0142    0.0265
          26    0.0076    0.0306    0.0111    0.0187    0.0012    0.0048   -0.0046   -0.0051
          27   -0.0020    0.0052    0.0190    0.0174    0.0057   -0.0044   -0.0064    0.0035
          28    0.0216   -0.0145    0.0069    0.0408   -0.0016    0.0173    0.0070   -0.0041
          29    0.0127   -0.0045   -0.0019    0.0185    0.0046    0.0123   -0.0041   -0.0086
          30    0.0036   -0.0300    0.0054    0.0171    0.0093    0.0038   -0.0053   -0.0012
          31    0.0024    0.0108   -0.0316   -0.0275   -0.0015    0.0010   -0.0137    0.0101
          32    0.0710   -0.0112    0.0135   -0.0165    0.0103    0.0016   -0.0031    0.0019
          33    0.0076   -0.0056    0.0437   -0.0133   -0.0007   -0.0084    0.0073   -0.0001
          34    0.0084   -0.0128   -0.0122   -0.0045   -0.0092   -0.0212    0.0056    0.0226
          35   -0.0111    0.0116    0.0030   -0.0119   -0.0223    0.0083   -0.0332   -0.0028
          36    0.0137    0.0171   -0.0235   -0.0028   -0.0064    0.0078   -0.0085    0.0078
          37   -0.0056   -0.0032   -0.0098   -0.0067   -0.0046   -0.0013   -0.0017    0.0113
          38    0.0041   -0.0388   -0.0176   -0.0173    0.0010   -0.0144   -0.0074    0.0058
          39   -0.0067    0.0464    0.0120   -0.0121   -0.0004    0.0037    0.0229   -0.0244
          40   -0.0215    0.0025    0.0292   -0.0153   -0.0751    0.0584   -0.0345   -0.0748
          41   -0.0341   -0.0188    0.0095   -0.0103   -0.0183    0.0033   -0.0286   -0.0042
          42   -0.0208   -0.0243   -0.0105   -0.0027   -0.0101    0.0069   -0.0096    0.0068
          43   -0.0139    0.0042    0.0102   -0.0031   -0.0272    0.0262   -0.0138   -0.0355
          44   -0.0375    0.0035    0.0145    0.0008   -0.0246    0.0404   -0.0453   -0.0351
          45   -0.0084   -0.0049   -0.0449    0.0306    0.0825   -0.0321    0.0193    0.0633
          46   -0.0211   -0.0056    0.0152   -0.0506    0.0280    0.0064    0.0017    0.0045
          47   -0.0563   -0.0214    0.0207   -0.0093    0.0245    0.0106    0.0222    0.0010
          48    0.0564    0.0392   -0.0500   -0.0019   -0.0443   -0.0053   -0.0632    0.0138
          49    0.0309    0.0155   -0.0334   -0.0234   -0.0124   -0.0106   -0.0058    0.0032
          50   -0.0744   -0.0323    0.0287   -0.0045    0.0404    0.0153    0.0525   -0.0028
          51    0.0085    0.0136   -0.0202   -0.0023   -0.0034    0.0085   -0.0081    0.0075
          52   -0.0159    0.0157   -0.0174    0.0345    0.0569   -0.0090   -0.0220   -0.0219
          53    0.0076    0.0157   -0.0187   -0.0002    0.0547   -0.0808   -0.0211   -0.0781
          54   -0.0250   -0.0278    0.0121   -0.0262   -0.0785    0.0745    0.0122    0.0512
          55   -0.0265    0.0287   -0.0015    0.0277    0.0067    0.1071    0.0266    0.0998
          56   -0.0078    0.0259   -0.0039   -0.0035    0.0083    0.0293    0.0180    0.0390
          57   -0.0377   -0.0516   -0.0072    0.0006   -0.0118   -0.0332   -0.0663   -0.0546
          58   -0.0111    0.0128   -0.0349    0.0507    0.1116   -0.0828   -0.0520   -0.0836
          59    0.0030    0.0496   -0.0084   -0.0016    0.0139    0.0713    0.0653    0.1091
          60   -0.0161   -0.0181   -0.0237    0.0101    0.0264   -0.0187   -0.0124    0.0061
          61   -0.0219    0.0138    0.0321   -0.0172   -0.0178   -0.0505   -0.0048    0.0300
          62   -0.0090    0.0466    0.0130   -0.0164   -0.0050   -0.0190    0.0047   -0.0055
          63   -0.0091    0.0640    0.0185   -0.0136    0.0002   -0.0088    0.0252   -0.0237
          64    0.0283   -0.0224   -0.0312   -0.0056   -0.0012    0.0243    0.0494   -0.0437
          65    0.0059   -0.0580   -0.0246   -0.0175    0.0043   -0.0062   -0.0010   -0.0036
          66    0.0071   -0.0403   -0.0209   -0.0155    0.0097    0.0066    0.0212   -0.0263
          67   -0.0232   -0.0154    0.0403   -0.0477    0.0279   -0.0011    0.0170   -0.0001
          68   -0.0185    0.0123   -0.0728    0.0838   -0.0942   -0.0598    0.0596   -0.0113
          69   -0.0087    0.0081    0.0000    0.0182   -0.0363   -0.0228    0.0115    0.0011
          70    0.0033    0.0005    0.0456    0.0579   -0.0072   -0.0205   -0.0345    0.0486
          71    0.0120    0.0555    0.0216    0.0359    0.0013    0.0106   -0.0059   -0.0053
          72   -0.0032    0.0056    0.0308    0.0319    0.0057   -0.0107   -0.0211    0.0195
          73    0.0336   -0.0213    0.0071    0.0661    0.0033    0.0393    0.0090   -0.0152
          74    0.0208   -0.0080   -0.0018    0.0353    0.0078    0.0272   -0.0025   -0.0165
          75    0.0066   -0.0584    0.0065    0.0322    0.0123    0.0077   -0.0163    0.0071
          76    0.0192    0.0248   -0.0704   -0.0176   -0.0180    0.0020   -0.0348    0.0179
          77    0.0950   -0.0264    0.0633   -0.0713    0.0731    0.0410   -0.0364    0.0097
          78    0.0212   -0.0069    0.0505   -0.0301    0.0171    0.0061   -0.0106    0.0049
          79   -0.0058    0.0082   -0.0254   -0.0299    0.0034    0.0033   -0.0115    0.0095
          80    0.1077   -0.0029   -0.0053   -0.0022   -0.0163   -0.0176    0.0005    0.0000
          81   -0.0033   -0.0153    0.0708   -0.0097   -0.0027   -0.0230    0.0378   -0.0106


   Root No.       9        10        11        12        13        14        15        16

                 9 A      10 A      11 A      12 A      13 A      14 A      15 A      16 A   

                 296.7     340.5     425.0     448.0     504.9     519.1     605.1     628.5
  
           1    0.0004    0.0072    0.0008    0.0058   -0.0043   -0.0145   -0.0320    0.0228
           2   -0.0099   -0.0054   -0.0066   -0.0350   -0.0126    0.0050   -0.0064    0.0124
           3   -0.0208    0.0079    0.0033    0.0217   -0.0231   -0.0219    0.0356    0.0013
           4   -0.0003    0.0184   -0.0003   -0.0023   -0.0079   -0.0114   -0.0225    0.0279
           5    0.0230    0.0100    0.0023    0.0098   -0.0032   -0.0132   -0.0063    0.0169
           6    0.0007    0.0016   -0.0019   -0.0094   -0.0080   -0.0003   -0.0126    0.0191
           7    0.0049    0.0111   -0.0076    0.0380    0.0149   -0.0076   -0.0114    0.0004
           8   -0.0112   -0.0032   -0.0141   -0.0290   -0.0029    0.0174    0.0043    0.0034
           9   -0.0074    0.0088   -0.0225    0.0121    0.0180    0.0042   -0.0048   -0.0047
          10    0.0028   -0.0336   -0.0254    0.0033   -0.0082   -0.0041    0.0069   -0.0051
          11   -0.0276    0.0013    0.0329    0.0005   -0.0160   -0.0110    0.0064    0.0001
          12   -0.0125    0.0169    0.0045   -0.0039   -0.0235   -0.0188    0.0136    0.0063
          13    0.0394   -0.0072    0.0074   -0.0034   -0.0038   -0.0004    0.0028   -0.0005
          14   -0.0345    0.0157   -0.0335    0.0121    0.0240    0.0127   -0.0067   -0.0033
          15   -0.0009    0.0031   -0.0225   -0.0019    0.0136    0.0106   -0.0054   -0.0016
          16    0.0107    0.0388    0.0018   -0.0164    0.0147   -0.0126    0.0179   -0.0079
          17    0.0260    0.0121    0.0050    0.0001    0.0115   -0.0132    0.0013   -0.0033
          18    0.0087    0.0103    0.0004   -0.0212    0.0068    0.0014    0.0005   -0.0005
          19   -0.0056    0.0297   -0.0004   -0.0167   -0.0112    0.0336    0.0048   -0.0036
          20    0.0297    0.0162    0.0060    0.0142   -0.0021    0.0066    0.0103   -0.0057
          21    0.0183    0.0090    0.0042    0.0015   -0.0054    0.0164   -0.0059   -0.0015
          22   -0.0031   -0.0379   -0.0157    0.0038   -0.0055   -0.0009    0.0123   -0.0105
          23    0.0013   -0.0232   -0.0033    0.0035   -0.0145   -0.0116   -0.0117   -0.0334
          24   -0.0065   -0.0130    0.0464   -0.0032    0.0175    0.0113   -0.0141   -0.0112
          25   -0.0138    0.0079   -0.0007    0.0137   -0.0157    0.0192    0.0035    0.0021
          26    0.0059   -0.0101    0.0023    0.0159   -0.0100    0.0120   -0.0103    0.0043
          27    0.0050   -0.0083    0.0021    0.0131   -0.0102    0.0124   -0.0109    0.0053
          28   -0.0271   -0.0042   -0.0058   -0.0265    0.0104   -0.0157    0.0032    0.0035
          29    0.0080   -0.0127    0.0014    0.0017    0.0101   -0.0201   -0.0010    0.0011
          30    0.0077   -0.0118    0.0014   -0.0010    0.0109   -0.0214   -0.0044    0.0029
          31   -0.0137   -0.0264    0.0403   -0.0010    0.0154    0.0117   -0.0018   -0.0122
          32   -0.0015   -0.0027    0.0058    0.0003    0.0042    0.0033    0.0030    0.0039
          33    0.0023   -0.0224   -0.0006    0.0005    0.0032    0.0039    0.0013   -0.0074
          34    0.0016    0.0213    0.0071    0.0140   -0.0056   -0.0286   -0.0306    0.0296
          35   -0.0131   -0.0054   -0.0077   -0.0492   -0.0282    0.0045    0.0055    0.0184
          36   -0.0213    0.0119    0.0048    0.0156   -0.0314   -0.0271    0.0410    0.0065
          37   -0.0040   -0.0012    0.0050   -0.0031   -0.0311   -0.0251   -0.0160    0.0399
          38    0.0196    0.0185    0.0009    0.0323   -0.0103    0.0054   -0.0042    0.0122
          39    0.0042    0.0024   -0.0034   -0.0308    0.0109   -0.0122   -0.0171    0.0168
          40   -0.0058    0.0204   -0.0110    0.0889    0.0264   -0.0146    0.0385   -0.0311
          41   -0.0073   -0.0086   -0.0191   -0.0535    0.0008    0.0289   -0.0239    0.0158
          42   -0.0095    0.0093   -0.0275    0.0179    0.0249    0.0087   -0.0008   -0.0105
          43    0.0026    0.0124   -0.0084    0.0435    0.0160   -0.0087   -0.0071   -0.0019
          44    0.0007   -0.0036   -0.0137   -0.0039    0.0070    0.0223    0.0472   -0.0266
          45    0.0131   -0.0022   -0.0181   -0.0347    0.0101    0.0141   -0.0391    0.0149
          46   -0.0115   -0.0343   -0.0018    0.0038    0.0032    0.0092    0.0454    0.0372
          47   -0.0371    0.0018    0.0531    0.0045   -0.0082   -0.0042    0.0298    0.0267
          48    0.0164    0.0055   -0.0879   -0.0496   -0.0433   -0.0148   -0.0208   -0.0333
          49    0.0158   -0.0377   -0.0867   -0.0041   -0.0373   -0.0212    0.0052   -0.0474
          50   -0.0550    0.0090    0.1001    0.0405   -0.0075   -0.0179    0.0584    0.0390
          51   -0.0238    0.0200    0.0244    0.0158   -0.0260   -0.0268    0.0411    0.0167
          52    0.0279   -0.0069    0.0061   -0.0045   -0.0040   -0.0001    0.0051   -0.0015
          53   -0.1084    0.0355   -0.0521    0.0521    0.0483    0.0083   -0.0183   -0.0093
          54    0.0363    0.0069   -0.0204    0.0156    0.0204    0.0066   -0.0191    0.0024
          55    0.1285   -0.0265    0.0287   -0.0391   -0.0265    0.0034    0.0142    0.0038
          56   -0.0129    0.0103   -0.0279    0.0014    0.0175    0.0142   -0.0033   -0.0019
          57   -0.0124   -0.0118   -0.0082   -0.0456   -0.0164    0.0168    0.0113    0.0090
          58   -0.0176   -0.0039    0.0003   -0.0058   -0.0022    0.0014    0.0108   -0.0052
          59    0.0118    0.0177   -0.0364    0.0257    0.0374    0.0118   -0.0132   -0.0107
          60   -0.0124    0.0059   -0.0277    0.0027    0.0205    0.0112   -0.0038   -0.0077
          61    0.0331    0.0735    0.0071   -0.0284    0.0440   -0.0286    0.0840   -0.0695
          62    0.0368    0.0310    0.0078   -0.0144    0.0296   -0.0191    0.0366   -0.0415
          63    0.0169    0.0267    0.0028   -0.0396    0.0240   -0.0018    0.0301   -0.0365
          64    0.0004    0.0533    0.0017   -0.0359   -0.0218    0.0963    0.0371   -0.0537
          65    0.0471    0.0339    0.0111    0.0165   -0.0049    0.0350    0.0295   -0.0381
          66    0.0309    0.0270    0.0080   -0.0028   -0.0103    0.0526    0.0156   -0.0365
          67   -0.0034   -0.0453   -0.0229    0.0049   -0.0089   -0.0025    0.0024   -0.0290
          68    0.0275   -0.0798   -0.0191    0.0120    0.0230    0.0219    0.0312    0.0158
          69    0.0033   -0.0366    0.0359    0.0004    0.0289    0.0223   -0.0014   -0.0002
          70   -0.0177   -0.0002    0.0026    0.0573   -0.0491    0.0711    0.0140   -0.0222
          71   -0.0085   -0.0194    0.0014    0.0307   -0.0364    0.0587   -0.0076   -0.0088
          72    0.0031   -0.0137    0.0046    0.0440   -0.0328    0.0472   -0.0037   -0.0114
          73   -0.0454   -0.0292   -0.0108   -0.0622    0.0469   -0.0642    0.0208   -0.0208
          74   -0.0042   -0.0295   -0.0019   -0.0218    0.0340   -0.0518    0.0100   -0.0147
          75    0.0046   -0.0232   -0.0001   -0.0148    0.0393   -0.0645    0.0208   -0.0182
          76   -0.0223   -0.0204    0.1169   -0.0068    0.0626    0.0448   -0.0134    0.0116
          77   -0.0287    0.0586    0.0288   -0.0102   -0.0419   -0.0406   -0.0784   -0.1010
          78   -0.0098    0.0013    0.0285   -0.0048   -0.0005   -0.0028   -0.0308   -0.0387
          79   -0.0165   -0.0218    0.0344   -0.0014    0.0002   -0.0010   -0.0161   -0.0404
          80    0.0232   -0.0452   -0.0038    0.0074    0.0768    0.0685    0.1057    0.1671
          81    0.0245   -0.0561   -0.0920    0.0111   -0.0170   -0.0033    0.0621    0.0314


   Root No.      17        18        19        20        21        22        23        24

                17 A      18 A      19 A      20 A      21 A      22 A      23 A      24 A   

                 743.3     811.7     822.1     831.9     848.9     865.3     923.2     935.2
  
           1    0.0272   -0.0018   -0.0019    0.0011   -0.0075   -0.0053    0.0043   -0.0041
           2    0.0100    0.0009   -0.0007    0.0038   -0.0045    0.0140    0.0138    0.0133
           3   -0.0057    0.0007   -0.0002   -0.0001    0.0036   -0.0063   -0.0212    0.0052
           4    0.0039   -0.0017    0.0014    0.0064   -0.0207   -0.0075   -0.0093   -0.0031
           5   -0.0231   -0.0022    0.0239    0.0446    0.0015   -0.0018   -0.0025   -0.0015
           6   -0.0244    0.0066   -0.0312    0.0390   -0.0064   -0.0022   -0.0035   -0.0014
           7    0.0132    0.0013   -0.0128    0.0022    0.0317    0.0099    0.0041    0.0067
           8   -0.0013   -0.0048   -0.0022   -0.0057    0.0033   -0.0204   -0.0108   -0.0076
           9   -0.0019    0.0023    0.0046    0.0007   -0.0104    0.0098    0.0048    0.0043
          10   -0.0001   -0.0002   -0.0003    0.0016   -0.0010   -0.0118   -0.0102    0.0107
          11    0.0069    0.0021   -0.0009   -0.0033    0.0006    0.0473   -0.0002    0.0118
          12    0.0118    0.0027    0.0011   -0.0108    0.0067   -0.0037    0.0190   -0.0057
          13   -0.0041   -0.0001   -0.0010    0.0040    0.0070    0.0007   -0.0004    0.0008
          14    0.0003   -0.0019   -0.0012   -0.0040    0.0024   -0.0150   -0.0143   -0.0097
          15   -0.0011   -0.0010    0.0001   -0.0008   -0.0025   -0.0068    0.0016   -0.0028
          16   -0.0121    0.0300   -0.0149   -0.0190   -0.0002   -0.0014   -0.0037   -0.0022
          17    0.0156    0.0067    0.0487   -0.0340   -0.0009   -0.0030   -0.0106   -0.0006
          18   -0.0155    0.0138    0.0006    0.0188    0.0108    0.0035    0.0126   -0.0030
          19   -0.0095   -0.0314    0.0195   -0.0108    0.0032    0.0024   -0.0013   -0.0018
          20   -0.0221   -0.0096   -0.0051    0.0223    0.0155    0.0045    0.0088   -0.0027
          21    0.0139   -0.0132   -0.0395   -0.0423   -0.0170   -0.0016   -0.0048   -0.0011
          22   -0.0001    0.0006    0.0016   -0.0064    0.0040    0.0026    0.0053   -0.0010
          23   -0.0063    0.0001    0.0008   -0.0014    0.0017   -0.0028   -0.0059   -0.0275
          24   -0.0051   -0.0004   -0.0008    0.0032   -0.0015    0.0010   -0.0004   -0.0100
          25   -0.0199    0.0283   -0.0370   -0.0075    0.0015    0.0010    0.0016    0.0026
          26    0.0064    0.0100    0.0014   -0.0212   -0.0027   -0.0004   -0.0014    0.0019
          27    0.0053   -0.0038    0.0714   -0.0083    0.0096    0.0008   -0.0030    0.0026
          28   -0.0158   -0.0270    0.0356    0.0020    0.0107    0.0042    0.0043    0.0036
          29   -0.0027    0.0029   -0.0687   -0.0213   -0.0102    0.0005    0.0018    0.0019
          30    0.0049   -0.0135    0.0050   -0.0194   -0.0015    0.0006    0.0004    0.0020
          31   -0.0031    0.0005    0.0012   -0.0051    0.0039    0.0016    0.0208   -0.0190
          32    0.0003    0.0002    0.0004   -0.0008    0.0009   -0.0043    0.0054   -0.0128
          33   -0.0031   -0.0002   -0.0003    0.0007   -0.0004    0.0054   -0.0107    0.0044
          34    0.0470   -0.0013    0.0372   -0.0131   -0.0224   -0.0151    0.0105   -0.0109
          35    0.0224   -0.0030   -0.0154   -0.0135    0.0145   -0.0133    0.0282    0.0184
          36    0.0085   -0.0008    0.0045   -0.0142    0.0097   -0.0221   -0.0099    0.0064
          37    0.0260   -0.0082    0.0071    0.0167   -0.0567   -0.0135   -0.0222    0.0092
          38   -0.0260   -0.0433    0.0004    0.0376    0.0068   -0.0040   -0.0049   -0.0037
          39   -0.0291    0.0510   -0.0106    0.0406    0.0071    0.0035    0.0062   -0.0046
          40   -0.0474    0.0099    0.0607    0.0075   -0.1153    0.0237    0.0185    0.0030
          41    0.0190   -0.0061   -0.0086   -0.0117   -0.0052   -0.0253    0.0298   -0.0085
          42   -0.0153    0.0050    0.0315   -0.0011   -0.0777    0.0114    0.0350    0.0016
          43    0.0080    0.0022   -0.0036    0.0023    0.0111    0.0105    0.0072    0.0056
          44   -0.0587    0.0002    0.0385    0.0018   -0.0570   -0.0175   -0.0206   -0.0132
          45    0.0394   -0.0057   -0.0621   -0.0003    0.1384   -0.0010   -0.0195    0.0090
          46    0.0053    0.0029    0.0019    0.0017    0.0047   -0.0535    0.0297    0.0638
          47    0.0099    0.0032    0.0005   -0.0037    0.0044    0.0109    0.0224    0.0346
          48    0.0098    0.0078   -0.0033   -0.0026   -0.0032    0.1605    0.0058    0.0559
          49   -0.0076   -0.0008   -0.0022   -0.0021   -0.0011    0.0691   -0.0729    0.0299
          50    0.0095    0.0002    0.0036   -0.0162    0.0147   -0.0834    0.0104   -0.0162
          51    0.0111    0.0015    0.0029   -0.0184    0.0141   -0.0533    0.0088   -0.0162
          52   -0.0062    0.0005    0.0063    0.0016   -0.0139    0.0006    0.0050    0.0001
          53    0.0013    0.0029   -0.0099    0.0109    0.0346    0.0189    0.0204    0.0129
          54    0.0096   -0.0025   -0.0366    0.0152    0.1046    0.0021   -0.0158    0.0057
          55   -0.0156   -0.0046    0.0162   -0.0027   -0.0455   -0.0245   -0.0152   -0.0196
          56   -0.0028   -0.0035    0.0028   -0.0062   -0.0101   -0.0244   -0.0214   -0.0169
          57    0.0005   -0.0120   -0.0105   -0.0158    0.0192   -0.0749   -0.0861   -0.0477
          58   -0.0143    0.0026    0.0251   -0.0028   -0.0672   -0.0007    0.0193   -0.0035
          59   -0.0096    0.0047    0.0224    0.0022   -0.0613    0.0222    0.0535    0.0122
          60   -0.0114    0.0035    0.0255   -0.0018   -0.0736    0.0093    0.0438    0.0049
          61    0.0536   -0.1664   -0.0308    0.0528   -0.0068    0.0051   -0.0074    0.0181
          62    0.0711   -0.1196   -0.0128    0.0006   -0.0137   -0.0002   -0.0012    0.0096
          63    0.0461   -0.1077   -0.0936    0.0456   -0.0069    0.0053    0.0297    0.0050
          64    0.0713    0.1725    0.0194    0.0388   -0.0047   -0.0028   -0.0039    0.0182
          65    0.0454    0.1083    0.0775    0.0529    0.0256    0.0013    0.0155    0.0071
          66    0.0798    0.1210    0.0098   -0.0093   -0.0136   -0.0053   -0.0017    0.0110
          67   -0.0055   -0.0003    0.0014   -0.0017   -0.0017    0.0458   -0.0549   -0.0130
          68   -0.0084   -0.0024    0.0033    0.0020    0.0025   -0.1031    0.0517    0.2166
          69   -0.0078   -0.0016    0.0000    0.0058   -0.0029   -0.0207    0.0005    0.0747
          70    0.0650   -0.0652   -0.0972    0.1313   -0.0403   -0.0115   -0.0076   -0.0179
          71    0.0461   -0.0660   -0.0071    0.1263   -0.0091   -0.0002    0.0234   -0.0139
          72    0.0649   -0.0675    0.0297    0.0837   -0.0201   -0.0081   -0.0109   -0.0113
          73    0.0778    0.0757    0.0625    0.1331   -0.0196   -0.0210   -0.0256   -0.0179
          74    0.0599    0.0700   -0.0509    0.0629   -0.0309   -0.0162   -0.0183   -0.0122
          75    0.0405    0.0786   -0.0197    0.1216   -0.0013   -0.0122    0.0012   -0.0170
          76   -0.0091   -0.0023   -0.0051    0.0203   -0.0153    0.0447   -0.1036    0.0511
          77   -0.0191   -0.0031    0.0020    0.0046   -0.0001   -0.0715    0.0319    0.1452
          78   -0.0117   -0.0021   -0.0014    0.0095   -0.0058   -0.0067   -0.0349    0.0798
          79   -0.0077    0.0003    0.0026   -0.0082    0.0071   -0.0146    0.0378   -0.0356
          80    0.0318    0.0027   -0.0042    0.0006   -0.0059    0.0843   -0.0297    0.0274
          81    0.0150    0.0042    0.0052   -0.0302    0.0206    0.0061    0.1099   -0.0952


   Root No.      25        26        27        28        29        30        31        32

                25 A      26 A      27 A      28 A      29 A      30 A      31 A      32 A   

                 955.0     974.5     981.9     985.1    1020.6    1025.4    1048.6    1058.1
  
           1    0.0134    0.0066    0.0036   -0.0119    0.0008    0.0037    0.0031   -0.0039
           2    0.0045   -0.0095   -0.0009    0.0073   -0.0027   -0.0011    0.0025    0.0023
           3   -0.0013    0.0052   -0.0011   -0.0007    0.0004   -0.0002   -0.0148    0.0034
           4   -0.0074    0.0069   -0.0062    0.0066   -0.0024   -0.0007   -0.0004    0.0212
           5   -0.0043    0.0049   -0.0095    0.0164    0.0016   -0.0084   -0.0023   -0.0080
           6   -0.0055    0.0037   -0.0159    0.0154    0.0086    0.0057   -0.0050   -0.0020
           7    0.0021   -0.0048    0.0014   -0.0006    0.0031    0.0050   -0.0100   -0.0117
           8    0.0001    0.0026    0.0015   -0.0021    0.0049   -0.0035   -0.0044    0.0081
           9   -0.0017    0.0003   -0.0021    0.0019   -0.0072    0.0011    0.0087    0.0061
          10    0.0128   -0.0154    0.0005    0.0016   -0.0011    0.0016    0.0160   -0.0042
          11   -0.0102    0.0106    0.0022   -0.0066   -0.0052    0.0055   -0.0047   -0.0035
          12    0.0020   -0.0086    0.0010   -0.0022    0.0014    0.0011    0.0136   -0.0037
          13   -0.0034   -0.0024   -0.0013    0.0061   -0.0014   -0.0066    0.0059    0.0073
          14   -0.0017    0.0144   -0.0019   -0.0096   -0.0072    0.0079    0.0054   -0.0103
          15    0.0031   -0.0031    0.0017    0.0000    0.0062   -0.0014   -0.0066   -0.0042
          16   -0.0150   -0.0127   -0.0019   -0.0121   -0.0054   -0.0126   -0.0034   -0.0047
          17   -0.0187   -0.0122   -0.0104   -0.0055    0.0017    0.0013   -0.0037    0.0037
          18    0.0105   -0.0007    0.0202   -0.0208   -0.0135   -0.0201   -0.0003   -0.0104
          19   -0.0143   -0.0101    0.0201   -0.0017    0.0046    0.0127    0.0021    0.0026
          20    0.0070   -0.0031    0.0137   -0.0189    0.0053    0.0200    0.0006    0.0008
          21   -0.0161   -0.0072    0.0179    0.0046   -0.0019   -0.0017    0.0035    0.0015
          22   -0.0040    0.0034    0.0017   -0.0032    0.0011   -0.0015   -0.0075    0.0027
          23    0.0092   -0.0096   -0.0005    0.0030    0.0123   -0.0077    0.0246   -0.0049
          24   -0.0003    0.0006   -0.0024    0.0037    0.0014    0.0000    0.0085   -0.0028
          25    0.0123    0.0111    0.0175    0.0139    0.0046    0.0121    0.0031    0.0067
          26    0.0061    0.0072    0.0137    0.0095    0.0017    0.0075    0.0027    0.0084
          27    0.0040    0.0059    0.0084    0.0162    0.0070    0.0078   -0.0014   -0.0095
          28    0.0112    0.0024   -0.0285   -0.0056   -0.0047   -0.0115   -0.0022    0.0012
          29    0.0045    0.0017   -0.0226    0.0005   -0.0012   -0.0090   -0.0025   -0.0119
          30    0.0056    0.0016   -0.0209   -0.0058   -0.0042   -0.0070   -0.0001    0.0055
          31   -0.0152    0.0161   -0.0026    0.0011    0.0044   -0.0020   -0.0044    0.0012
          32    0.0018   -0.0073   -0.0030    0.0089   -0.0261    0.0131   -0.0240    0.0041
          33    0.0045   -0.0061    0.0011    0.0000   -0.0056    0.0026   -0.0082    0.0020
          34    0.0270    0.0340    0.0243   -0.0437   -0.0323   -0.0310    0.0285    0.0047
          35    0.0265   -0.0515    0.0153    0.0096    0.0461   -0.0170   -0.0620    0.0119
          36    0.0149   -0.0081    0.0143   -0.0111    0.0146   -0.0193   -0.0395    0.0102
          37    0.0145    0.0314    0.0049    0.0202   -0.0215   -0.0206   -0.0302    0.0331
          38    0.0001    0.0197    0.0957    0.0524   -0.0388   -0.1175   -0.0206   -0.0555
          39   -0.0181   -0.0225   -0.1252   -0.0291    0.0576    0.1243    0.0271    0.0412
          40    0.0001    0.0088   -0.0040    0.0001   -0.0224   -0.0006    0.0316    0.0081
          41    0.0348   -0.0321    0.0226   -0.0177    0.0541    0.0036   -0.0507   -0.0243
          42    0.0188   -0.0147    0.0084   -0.0079    0.0123    0.0037   -0.0022   -0.0061
          43    0.0058   -0.0029    0.0028   -0.0050    0.0024    0.0083   -0.0096   -0.0190
          44   -0.0380    0.0089   -0.0162    0.0379   -0.0254   -0.0535    0.0589    0.1268
          45   -0.0235   -0.0104   -0.0096    0.0262    0.0008   -0.0169   -0.0001    0.0436
          46    0.0209   -0.0755   -0.0108    0.0425   -0.0815    0.0433    0.1285   -0.0541
          47   -0.0026   -0.0234   -0.0037    0.0151   -0.0422    0.0243    0.0522   -0.0273
          48   -0.0376    0.0198    0.0001   -0.0020   -0.0545    0.0359    0.0253   -0.0298
          49    0.0108    0.0010    0.0154   -0.0297    0.0376   -0.0167   -0.0446    0.0163
          50    0.0266   -0.0336    0.0060   -0.0060    0.0340   -0.0179   -0.0028    0.0084
          51    0.0211   -0.0278    0.0066   -0.0097    0.0323   -0.0159   -0.0012    0.0080
          52    0.0030   -0.0029    0.0015    0.0000    0.0030   -0.0009   -0.0021   -0.0022
          53   -0.0085   -0.0309   -0.0017    0.0334    0.0113   -0.0330    0.0063    0.0365
          54   -0.0285   -0.0102   -0.0114    0.0383   -0.0104   -0.0371    0.0314    0.0474
          55    0.0109    0.0289    0.0082   -0.0323   -0.0054    0.0267   -0.0088   -0.0573
          56    0.0014    0.0255    0.0004   -0.0213   -0.0097    0.0178    0.0027   -0.0290
          57   -0.0097    0.0852   -0.0061   -0.0570   -0.0422    0.0486    0.0208   -0.0716
          58    0.0189   -0.0052    0.0064   -0.0167    0.0174    0.0168   -0.0228   -0.0308
          59    0.0230   -0.0430    0.0122    0.0104    0.0392   -0.0109   -0.0356    0.0006
          60    0.0271   -0.0312    0.0124   -0.0038    0.0385    0.0035   -0.0423   -0.0209
          61    0.0307    0.0413   -0.0409    0.1013    0.0383    0.0326   -0.0017   -0.0543
          62    0.0351    0.0320    0.0003    0.0328    0.0100    0.0308    0.0060    0.0434
          63    0.0783    0.0482    0.0529   -0.0058   -0.0177    0.0089    0.0145    0.0719
          64    0.0354    0.0321   -0.1110    0.0616    0.0088   -0.0406   -0.0183   -0.0630
          65    0.0683    0.0296   -0.0399   -0.0434   -0.0186    0.0019    0.0060    0.0688
          66    0.0362    0.0255   -0.0548    0.0086   -0.0154   -0.0287    0.0010    0.0243
          67    0.0204   -0.0070    0.0131   -0.0166    0.0221   -0.0226   -0.0286    0.0143
          68   -0.0505    0.0351    0.0070   -0.0180   -0.0340    0.0209   -0.0657    0.0123
          69   -0.0142    0.0138    0.0042   -0.0087   -0.0081    0.0032   -0.0322    0.0076
          70   -0.0699   -0.0526   -0.0921   -0.0539   -0.0012   -0.0186   -0.0122   -0.0080
          71    0.0018   -0.0140    0.0107   -0.0775   -0.0520   -0.0651    0.0152    0.0151
          72   -0.0550   -0.0389   -0.0704   -0.0281    0.0058   -0.0103   -0.0133   -0.0209
          73   -0.0662   -0.0158    0.1255    0.0429    0.0128    0.0138    0.0011   -0.0184
          74   -0.0474   -0.0105    0.0786    0.0340    0.0102    0.0056   -0.0006   -0.0274
          75   -0.0047   -0.0002    0.0872   -0.0382    0.0115    0.0726    0.0124    0.0644
          76    0.0481   -0.0449    0.0133   -0.0112   -0.0028   -0.0020   -0.0130    0.0058
          77   -0.0434    0.0567    0.0103   -0.0373    0.0882   -0.0427    0.0722   -0.0128
          78    0.0051    0.0006    0.0103   -0.0201    0.0338   -0.0176    0.0233   -0.0026
          79   -0.0200    0.0151   -0.0068    0.0104   -0.0170    0.0087   -0.0264    0.0053
          80   -0.0067    0.0361    0.0134   -0.0402    0.1046   -0.0517    0.0890   -0.0157
          81   -0.0658    0.0711   -0.0121    0.0024    0.0302   -0.0124    0.0006    0.0005


   Root No.      33        34        35        36        37        38        39        40

                33 A      34 A      35 A      36 A      37 A      38 A      39 A      40 A   

                1066.8    1086.5    1092.5    1113.7    1126.9    1138.0    1158.0    1175.1
  
           1    0.0151    0.0018   -0.0018    0.0033   -0.0001    0.0024   -0.0024   -0.0133
           2   -0.0020   -0.0008    0.0039    0.0255   -0.0063   -0.0144   -0.0209   -0.0064
           3   -0.0183   -0.0006    0.0044    0.0166   -0.0096   -0.0021    0.0297   -0.0194
           4   -0.0137   -0.0037    0.0015   -0.0110    0.0087    0.0000    0.0017    0.0075
           5    0.0057   -0.0031   -0.0012   -0.0045    0.0036    0.0002    0.0051    0.0142
           6   -0.0041    0.0013   -0.0002   -0.0082    0.0045   -0.0028    0.0020    0.0075
           7   -0.0145   -0.0015    0.0024   -0.0016   -0.0176    0.0196   -0.0045    0.0137
           8    0.0019    0.0023   -0.0005   -0.0112   -0.0183    0.0202    0.0233   -0.0104
           9    0.0012    0.0012   -0.0010    0.0034   -0.0375   -0.0234   -0.0151    0.0112
          10   -0.0016    0.0007   -0.0010   -0.0103   -0.0019    0.0015   -0.0081   -0.0234
          11    0.0060    0.0002   -0.0025   -0.0138    0.0090    0.0047   -0.0008   -0.0079
          12    0.0168    0.0002   -0.0050   -0.0228    0.0054    0.0061   -0.0154    0.0204
          13    0.0101    0.0017   -0.0026    0.0020    0.0150   -0.0290    0.0078   -0.0139
          14    0.0006   -0.0014   -0.0008    0.0015    0.0130   -0.0122   -0.0088    0.0014
          15   -0.0029   -0.0024    0.0030    0.0064    0.0404    0.0188    0.0020   -0.0128
          16   -0.0056   -0.0025    0.0034   -0.0016   -0.0008   -0.0020    0.0013    0.0004
          17   -0.0105    0.0172    0.0054   -0.0049    0.0041   -0.0039    0.0014    0.0016
          18    0.0044   -0.0032   -0.0086    0.0111   -0.0113    0.0061   -0.0074   -0.0111
          19    0.0012    0.0038    0.0015    0.0049   -0.0014   -0.0013   -0.0013   -0.0017
          20    0.0013    0.0054   -0.0089    0.0124   -0.0123    0.0047   -0.0082   -0.0115
          21    0.0029   -0.0159    0.0115    0.0001    0.0015   -0.0023    0.0032    0.0037
          22    0.0077   -0.0004   -0.0009    0.0006    0.0010    0.0011   -0.0033    0.0135
          23   -0.0103    0.0011    0.0009    0.0078   -0.0010    0.0000    0.0040    0.0092
          24   -0.0101    0.0004    0.0012    0.0000   -0.0013   -0.0010    0.0029   -0.0158
          25    0.0011   -0.0042   -0.0011   -0.0015    0.0032   -0.0013    0.0030    0.0039
          26   -0.0022   -0.0010    0.0076   -0.0040    0.0051   -0.0020    0.0018    0.0027
          27    0.0067    0.0026   -0.0054    0.0072   -0.0086    0.0040   -0.0057   -0.0066
          28   -0.0061    0.0010   -0.0024   -0.0052    0.0043   -0.0022    0.0012    0.0032
          29    0.0069    0.0003   -0.0051    0.0076   -0.0088    0.0048   -0.0043   -0.0086
          30   -0.0044    0.0016    0.0070   -0.0058    0.0050   -0.0018    0.0035    0.0053
          31   -0.0054   -0.0004    0.0012    0.0025   -0.0004   -0.0016    0.0023   -0.0019
          32    0.0076   -0.0007   -0.0003   -0.0016    0.0006   -0.0001    0.0003   -0.0001
          33    0.0058   -0.0006   -0.0009   -0.0063    0.0007    0.0010   -0.0059   -0.0021
          34    0.1343    0.0299   -0.0180    0.1164   -0.0262    0.0626    0.1063   -0.0213
          35   -0.0420   -0.0192    0.0259    0.1261    0.0584   -0.0918   -0.0740    0.0541
          36    0.0022   -0.0011    0.0100    0.1084    0.0150   -0.0233    0.0404    0.0113
          37   -0.0993    0.0088    0.0243    0.0495   -0.0973    0.0118   -0.0643   -0.0603
          38   -0.0150    0.0547   -0.0220   -0.0617    0.0462   -0.0125    0.0095    0.0355
          39    0.0569   -0.0626    0.0091    0.0251    0.0096    0.0038    0.0280    0.0146
          40    0.0235    0.0009   -0.0022    0.0270   -0.0124   -0.0454   -0.0452    0.0134
          41   -0.0026    0.0149   -0.0229   -0.1159   -0.1057   -0.0849    0.1323    0.0111
          42    0.0143    0.0096   -0.0166   -0.0490   -0.0905   -0.1192    0.0345    0.0257
          43   -0.0120   -0.0010    0.0007   -0.0006   -0.0114    0.0012   -0.0017    0.0084
          44    0.0496    0.0111   -0.0029    0.0038   -0.0467    0.1232   -0.0360    0.0243
          45   -0.0172   -0.0039    0.0132   -0.0051   -0.0903    0.1209   -0.0321    0.0562
          46   -0.0590    0.0134   -0.0032    0.0118    0.0109    0.0236    0.0634    0.0190
          47   -0.0218    0.0061   -0.0032   -0.0012    0.0149    0.0140    0.0308    0.0146
          48   -0.0130    0.0070   -0.0081   -0.0255    0.0230    0.0204    0.0442    0.0316
          49    0.0425   -0.0083   -0.0076   -0.0876    0.0099   -0.0014   -0.0579   -0.0727
[...]

 VIBRATION   55   55A       ATOM PAIR        ENERGY CONTRIBUTION    RADIAL
 FREQ.      1422.14        C  9 --  C 10          +13.3% ( 56.5%)   100.0%
 T-DIPOLE    0.0428        C  2 --  C  7           +8.0% ( 43.8%)    69.3%
 TRAVEL      0.0728        C  1 --  C  2           +7.6% ( 42.8%)    87.0%
 RED. MASS   1.0611        C  2 --  C  6           +7.3% ( 42.0%)    57.1%
 EFF. MASS   8.9544

 VIBRATION   56   56A       ATOM PAIR        ENERGY CONTRIBUTION    RADIAL
 FREQ.      1447.84        C  5 --  H 18          +29.9% ( 63.3%)     3.9%
 T-DIPOLE    0.0279        C  5 --  H 19          +17.3% ( 48.1%)     4.0%
 TRAVEL      0.1080        C  3 --  C  5          +15.7% ( 45.8%)    96.5%
 RED. MASS   0.6423        C  5 --  H 20          +11.2% ( 38.6%)     0.5%
 EFF. MASS   3.9941

 VIBRATION   57   57A       ATOM PAIR        ENERGY CONTRIBUTION    RADIAL
 FREQ.      1728.55        C  6 --  C  9          +18.5% ( 73.2%)    99.9%
 T-DIPOLE    0.4697        C  7 --  C 10          +18.0% ( 72.2%)    99.9%
 TRAVEL      0.0570        C  7 --  C  9          +10.7% ( 55.8%)    25.9%
 RED. MASS   2.7212        C  6 --  C 10          +10.7% ( 55.7%)    26.4%
 EFF. MASS  12.0263

 VIBRATION   58   58A       ATOM PAIR        ENERGY CONTRIBUTION    RADIAL
 FREQ.      1787.06        C  7 --  C 10          +18.1% ( 70.6%)    99.8%
 T-DIPOLE    0.3063        C  6 --  C  9          +17.6% ( 69.6%)    99.8%
 TRAVEL      0.0565        C  9 --  C 10          +12.2% ( 57.8%)     0.0%
 RED. MASS   2.6869        C  7 --  C  9          +10.9% ( 54.7%)    68.1%
 EFF. MASS  11.8001        C  6 --  C 10          +10.9% ( 54.7%)    63.6%

 VIBRATION   59   59A       ATOM PAIR        ENERGY CONTRIBUTION    RADIAL
 FREQ.      1860.01        C  8 --  C 11          +45.3% ( 99.3%)    98.9%
 T-DIPOLE    0.2633        C  4 --  C  8          +16.7% ( 60.3%)    54.5%
 TRAVEL      0.0554        C  8 --  H 23          +15.4% ( 58.0%)     3.9%
 RED. MASS   5.3020        C 11 --  H 26          +11.0% ( 48.9%)    10.9%
 EFF. MASS  11.7940        C 11 --  H 27          +10.8% ( 48.4%)    14.4%

 VIBRATION   60   60A       ATOM PAIR        ENERGY CONTRIBUTION    RADIAL
 FREQ.      2814.74        C  2 --  H 13          +96.5% ( 99.8%)   100.0%
 T-DIPOLE    0.3422        C  1 --  C  2           +1.0% ( 10.2%)     6.6%
 TRAVEL      0.1295        C  2 --  C  6           +1.0% ( 10.2%)     9.4%
 RED. MASS   0.9209        C  2 --  C  7           +1.0% ( 10.2%)    10.1%
 EFF. MASS   1.4274

 VIBRATION   61   61A       ATOM PAIR        ENERGY CONTRIBUTION    RADIAL
 FREQ.      2856.88        C  1 --  H 12          +96.1% ( 99.6%)   100.0%
 T-DIPOLE    0.0507        C  1 --  C  4           +1.0% ( 10.3%)     8.8%
 TRAVEL      0.1280        C  1 --  C  3           +1.0% ( 10.3%)     8.6%
 RED. MASS   0.9149        C  1 --  C  2           +1.0% ( 10.3%)     8.9%
 EFF. MASS   1.4414

 VIBRATION   62   62A       ATOM PAIR        ENERGY CONTRIBUTION    RADIAL
 FREQ.      2938.74        C  4 --  H 16          +52.7% ( 75.4%)    96.9%
 T-DIPOLE    0.0922        C  4 --  H 17          +44.5% ( 69.2%)    96.0%
 TRAVEL      0.1219        C  4 --  C  8           +1.2% ( 11.2%)     0.2%
 RED. MASS   0.5171        C  1 --  C  4           +1.1% ( 11.1%)     0.1%
 EFF. MASS   1.5443

 VIBRATION   63   63A       ATOM PAIR        ENERGY CONTRIBUTION    RADIAL
 FREQ.      2950.67        C  3 --  H 14          +50.8% ( 74.1%)    96.7%
 T-DIPOLE    0.0582        C  3 --  H 15          +46.1% ( 70.5%)    96.3%
 TRAVEL      0.1216        C  3 --  C  5           +1.2% ( 11.3%)     0.0%
 RED. MASS   0.5124        C  1 --  C  3           +1.1% ( 11.1%)     0.0%
 EFF. MASS   1.5450

 VIBRATION   64   64A       ATOM PAIR        ENERGY CONTRIBUTION    RADIAL
 FREQ.      3015.49        C  4 --  H 17          +53.3% ( 71.9%)    98.1%
 T-DIPOLE    0.0870        C  4 --  H 16          +44.7% ( 65.9%)    97.2%
 TRAVEL      0.1324        C  4 --  C  8           +0.6% (  7.9%)    30.7%
 RED. MASS   0.4805        C  1 --  C  4           +0.6% (  7.7%)    28.5%
 EFF. MASS   1.2764

 VIBRATION   65   65A       ATOM PAIR        ENERGY CONTRIBUTION    RADIAL
 FREQ.      3028.60        C  3 --  H 15          +49.6% ( 69.5%)    97.9%
 T-DIPOLE    0.0636        C  3 --  H 14          +45.9% ( 66.9%)    97.4%
 TRAVEL      0.1319        C  5 --  H 18           +2.3% ( 14.8%)    98.6%
 RED. MASS   0.4569        C  5 --  H 19           +0.7% (  8.2%)    89.7%
 EFF. MASS   1.2803

 VIBRATION   66   66A       ATOM PAIR        ENERGY CONTRIBUTION    RADIAL
 FREQ.      3039.61        C  8 --  H 23          +95.8% ( 99.2%)   100.0%
 T-DIPOLE    0.2235        C  8 --  C 11           +1.4% ( 12.0%)    30.6%
 TRAVEL      0.1216        C  4 --  C  8           +1.3% ( 11.6%)    14.1%
 RED. MASS   0.9020        C 11 --  H 27           +0.9% (  9.4%)    94.2%
 EFF. MASS   1.4994

 VIBRATION   67   67A       ATOM PAIR        ENERGY CONTRIBUTION    RADIAL
 FREQ.      3042.04        C  5 --  H 18          +79.9% ( 91.7%)    99.4%
 T-DIPOLE    0.0197        C  5 --  H 20          +11.8% ( 35.3%)    81.9%
 TRAVEL      0.1226        C  5 --  H 19           +4.7% ( 22.2%)    59.3%
 RED. MASS   0.6707        C  3 --  H 15           +2.1% ( 15.0%)    99.5%
 EFF. MASS   1.4738

 VIBRATION   68   68A       ATOM PAIR        ENERGY CONTRIBUTION    RADIAL
 FREQ.      3087.05        C  5 --  H 20          +49.0% ( 72.2%)    96.8%
 T-DIPOLE    0.0182        C  5 --  H 19          +47.8% ( 71.3%)    97.2%
 TRAVEL      0.1204        C  5 --  H 18           +1.9% ( 14.3%)    19.7%
 RED. MASS   0.4978        C  3 --  C  5           +1.0% ( 10.4%)     0.0%
 EFF. MASS   1.5059

 VIBRATION   69   69A       ATOM PAIR        ENERGY CONTRIBUTION    RADIAL
 FREQ.      3130.39        C  6 --  H 21          +44.2% ( 68.1%)   100.0%
 T-DIPOLE    0.2750        C  9 --  H 24          +41.8% ( 66.2%)   100.0%
 TRAVEL      0.1208        C 10 --  H 25           +6.9% ( 26.9%)   100.0%
 RED. MASS   0.3802        C  7 --  H 22           +2.9% ( 17.5%)   100.0%
 EFF. MASS   1.4769

 VIBRATION   70   70A       ATOM PAIR        ENERGY CONTRIBUTION    RADIAL
 FREQ.      3132.91        C 10 --  H 25          +50.5% ( 72.7%)   100.0%
 T-DIPOLE    0.4372        C  7 --  H 22          +34.7% ( 60.3%)   100.0%
 TRAVEL      0.1208        C  6 --  H 21           +8.8% ( 30.4%)   100.0%
 RED. MASS   0.3874        C  9 --  H 24           +1.9% ( 14.3%)    99.9%
 EFF. MASS   1.4752

 VIBRATION   71   71A       ATOM PAIR        ENERGY CONTRIBUTION    RADIAL
 FREQ.      3136.15        C 11 --  H 26          +91.2% ( 97.3%)    99.9%
 T-DIPOLE    0.1897        C 11 --  H 27           +7.4% ( 27.7%)    71.2%
 TRAVEL      0.1181        C  8 --  C 11           +1.3% ( 11.7%)    21.1%
 RED. MASS   0.8454
 EFF. MASS   1.5407

 VIBRATION   72   72A       ATOM PAIR        ENERGY CONTRIBUTION    RADIAL
 FREQ.      3143.96        C  9 --  H 24          +29.2% ( 55.5%)    99.9%
 T-DIPOLE    0.5352        C  7 --  H 22          +27.7% ( 54.1%)   100.0%
 TRAVEL      0.1158        C  6 --  H 21          +26.8% ( 53.2%)    99.9%
 RED. MASS   0.2571        C 10 --  H 25          +10.6% ( 33.4%)    99.8%
 EFF. MASS   1.6006

 VIBRATION   73   73A       ATOM PAIR        ENERGY CONTRIBUTION    RADIAL
 FREQ.      3148.05        C 11 --  H 27          +91.3% ( 96.2%)    99.9%
 T-DIPOLE    0.2602        C 11 --  H 26           +6.3% ( 25.3%)    45.0%
 TRAVEL      0.1210        C  8 --  C 11           +1.6% ( 12.7%)    74.2%
 RED. MASS   0.8099        C  8 --  H 23           +0.7% (  8.6%)    94.5%
 EFF. MASS   1.4627

 VIBRATION   74   74A       ATOM PAIR        ENERGY CONTRIBUTION    RADIAL
 FREQ.      3154.50        C  7 --  H 22          +29.4% ( 55.9%)    99.9%
 T-DIPOLE    0.2519        C 10 --  H 25          +27.0% ( 53.5%)   100.0%
 TRAVEL      0.1122        C  9 --  H 24          +21.9% ( 48.2%)   100.0%
 RED. MASS   0.2474        C  6 --  H 21          +15.1% ( 40.0%)    99.9%
 EFF. MASS   1.6994

 VIBRATION   75   75A       ATOM PAIR        ENERGY CONTRIBUTION    RADIAL
 FREQ.      3169.45        C  5 --  H 19          +47.8% ( 66.8%)    98.4%
 T-DIPOLE    0.0349        C  5 --  H 20          +38.7% ( 60.2%)    97.4%
 TRAVEL      0.1356        C  5 --  H 18          +13.1% ( 35.0%)    88.4%
 RED. MASS   0.3811        C  3 --  C  5           +0.3% (  5.6%)    82.5%
 EFF. MASS   1.1571

 SYMMETRY NUMBER FOR POINT-GROUP C1  =  1


          SYSTEM IS A GROUND STATE


    NULL



          MOLECULE IS NOT LINEAR

          THERE ARE 75 GENUINE VIBRATIONS IN THIS SYSTEM
          THIS THERMODYNAMICS CALCULATION IS LIMITED TO
          MOLECULES WHICH HAVE NO INTERNAL ROTATIONS




                    CALCULATED THERMODYNAMIC PROPERTIES
                                          *
   TEMP. (K)   PARTITION FUNCTION   H.O.F.    ENTHALPY  HEAT CAPACITY ENTROPY
                                   KCAL/MOL   CAL/MOLE    CAL/K/MOL  CAL/K/MOL


 298.00  VIB.     0.1718D+04                  5308.1411    37.5726    32.6153
         ROT.     0.1065D+07                   888.2813     2.9808    30.5601
         INT.     0.1830D+10                  6196.4224    40.5534    63.1754
         TRA.     0.1745D+28                  1480.4688     4.9680    40.8894
         TOT.                       32.278    7676.8912    45.5214   104.0647

 200.00  VIB.     0.9401D+02                  2333.3452    23.5992    20.6954
         ROT.     0.5855D+06                   596.1620     2.9808    29.3714
         INT.     0.5504D+08                  2929.5071    26.5800    50.0668
         TRA.     0.9595D+27                   993.6033     4.9680    38.9082
         TOT.                       28.525    3923.1104    31.5480    88.9750

 210.00  VIB.     0.1261D+03                  2575.7036    24.8792    21.8776
         ROT.     0.6300D+06                   625.9700     2.9808    29.5168
         INT.     0.7944D+08                  3201.6736    27.8600    51.3944
         TRA.     0.1032D+28                  1043.2834     4.9680    39.1506
         TOT.                       28.846    4244.9571    32.8280    90.5450

 220.00  VIB.     0.1692D+03                  2831.0625    26.1992    23.0653
         ROT.     0.6755D+06                   655.7781     2.9808    29.6555
         INT.     0.1143D+09                  3486.8407    29.1800    52.7208
         TRA.     0.1107D+28                  1092.9636     4.9680    39.3817
         TOT.                       29.181    4579.8042    34.1480    92.1025

 230.00  VIB.     0.2272D+03                  3099.8170    27.5580    24.2597
         ROT.     0.7221D+06                   685.5862     2.9808    29.7880
         INT.     0.1641D+09                  3785.4032    30.5388    54.0477
         TRA.     0.1183D+28                  1142.6437     4.9680    39.6026
         TOT.                       29.530    4928.0470    35.5068    93.6503

 240.00  VIB.     0.3052D+03                  3382.3439    28.9532    25.4619
         ROT.     0.7697D+06                   715.3943     2.9808    29.9149
         INT.     0.2349D+09                  4097.7383    31.9340    55.3768
         TRA.     0.1261D+28                  1192.3239     4.9680    39.8140
         TOT.                       29.892    5290.0622    36.9021    95.1908

 250.00  VIB.     0.4103D+03                  3678.9924    30.3817    26.6727
         ROT.     0.8183D+06                   745.2024     2.9808    30.0366
         INT.     0.3357D+09                  4424.1949    33.3625    56.7093
         TRA.     0.1341D+28                  1242.0041     4.9680    40.0168
         TOT.                       30.268    5666.1989    38.3305    96.7261

 260.00  VIB.     0.5520D+03                  3990.0766    31.8397    27.8926
         ROT.     0.8679D+06                   775.0105     2.9808    30.1535
         INT.     0.4790D+09                  4765.0871    34.8205    58.0461
         TRA.     0.1422D+28                  1291.6842     4.9680    40.2117
         TOT.                       30.658    6056.7714    39.7885    98.2577

 270.00  VIB.     0.7432D+03                  4315.8704    33.3229    29.1220
         ROT.     0.9184D+06                   804.8186     2.9808    30.2660
         INT.     0.6825D+09                  5120.6891    36.3037    59.3880
         TRA.     0.1505D+28                  1341.3644     4.9680    40.3992
         TOT.                       31.064    6462.0535    41.2718    99.7871

 280.00  VIB.     0.1002D+04                  4656.6047    34.8270    30.3610
         ROT.     0.9699D+06                   834.6267     2.9808    30.3744
         INT.     0.9714D+09                  5491.2314    37.8078    60.7354
         TRA.     0.1589D+28                  1391.0445     4.9680    40.5798
         TOT.                       31.484    6882.2760    42.7758   101.3152

 290.00  VIB.     0.1351D+04                  5012.4653    36.3475    31.6096
         ROT.     0.1022D+07                   864.4348     2.9808    30.4790
         INT.     0.1381D+10                  5876.9001    39.3283    62.0886
         TRA.     0.1675D+28                  1440.7247     4.9680    40.7542
         TOT.                       31.919    7317.6249    44.2963   102.8427

 300.00  VIB.     0.1825D+04                  5383.5934    37.8798    32.8676
         ROT.     0.1076D+07                   894.2429     2.9808    30.5800
         INT.     0.1963D+10                  6277.8363    40.8606    63.4477
         TRA.     0.1763D+28                  1490.4049     4.9680    40.9226
         TOT.                       32.370    7768.2412    45.8286   104.3703

 310.00  VIB.     0.2467D+04                  5770.0858    39.4196    34.1348
         ROT.     0.1130D+07                   924.0510     2.9808    30.6778
         INT.     0.2787D+10                  6694.1368    42.4004    64.8126
         TRA.     0.1851D+28                  1540.0850     4.9680    41.0855
         TOT.                       32.836    8234.2219    47.3685   105.8981

 320.00  VIB.     0.3339D+04                  6171.9973    40.9629    35.4107
         ROT.     0.1185D+07                   953.8591     2.9808    30.7724
         INT.     0.3957D+10                  7125.8565    43.9437    66.1831
         TRA.     0.1942D+28                  1589.7652     4.9680    41.2432
         TOT.                       33.317    8715.6217    48.9118   107.4263

 330.00  VIB.     0.4525D+04                  6589.3429    42.5058    36.6948
         ROT.     0.1241D+07                   983.6672     2.9808    30.8641
         INT.     0.5616D+10                  7573.0101    45.4866    67.5589
         TRA.     0.2034D+28                  1639.4454     4.9680    41.3961
         TOT.                       33.814    9212.4555    50.4546   108.9550

 340.00  VIB.     0.6139D+04                  7022.1002    44.0447    37.9866
         ROT.     0.1298D+07                  1013.4753     2.9808    30.9531
         INT.     0.7968D+10                  8035.5755    47.0255    68.9397
         TRA.     0.2127D+28                  1689.1255     4.9680    41.5444
         TOT.                       34.326    9724.7011    51.9935   110.4841

 350.00  VIB.     0.8339D+04                  7470.2133    45.5764    39.2855
         ROT.     0.1355D+07                  1043.2834     2.9808    31.0395
         INT.     0.1130D+11                  8513.4967    48.5572    70.3250
         TRA.     0.2221D+28                  1738.8057     4.9680    41.6884
         TOT.                       34.854   10252.3024    53.5253   112.0134

 360.00  VIB.     0.1134D+05                  7933.5952    47.0980    40.5908
         ROT.     0.1414D+07                  1073.0915     2.9808    31.1235
         INT.     0.1604D+11                  9006.6867    50.0789    71.7142
         TRA.     0.2317D+28                  1788.4859     4.9680    41.8284
         TOT.                       35.397   10795.1725    55.0469   113.5426

 370.00  VIB.     0.1544D+05                  8412.1318    48.6070    41.9018
         ROT.     0.1473D+07                  1102.8996     2.9808    31.2052
         INT.     0.2275D+11                  9515.0314    51.5878    73.1070
         TRA.     0.2414D+28                  1838.1660     4.9680    41.9645
         TOT.                       35.955   11353.1975    56.5558   115.0715

 380.00  VIB.     0.2105D+05                  8905.6849    50.1010    43.2179
         ROT.     0.1533D+07                  1132.7077     2.9808    31.2847
         INT.     0.3228D+11                 10038.3926    53.0818    74.5026
         TRA.     0.2513D+28                  1887.8462     4.9680    42.0970
         TOT.                       36.528   11926.2388    58.0498   116.5996

 390.00  VIB.     0.2873D+05                  9414.0951    51.5781    44.5385
         ROT.     0.1594D+07                  1162.5158     2.9808    31.3621
         INT.     0.4580D+11                 10576.6109    54.5589    75.9006
         TRA.     0.2613D+28                  1937.5263     4.9680    42.2260
         TOT.                       37.116   12514.1372    59.5269   118.1266

 400.00  VIB.     0.3924D+05                  9937.1851    53.0367    45.8627
         ROT.     0.1656D+07                  1192.3239     2.9808    31.4376
         INT.     0.6499D+11                 11129.5090    56.0175    77.3003
         TRA.     0.2714D+28                  1987.2065     4.9680    42.3518
         TOT.                       37.718   13116.7155    60.9855   119.6521

   *: NOTE: HEATS OF FORMATION ARE RELATIVE TO THE
            ELEMENTS IN THEIR STANDARD STATE AT 298K
              (=  Standard Enthalpy of Formation).

            Hvib:  Zero-point energy is not included.
                   frequencies of less than zero cm-1 are not included.
            Hrot = (3/2)RT
            Htra = (3/2)RT + pV = (5/2)RT

            Heat capacity is Cp, not Cv

           For more information, see: HTTP://OpenMOPAC.net/Manual/thermochemistry.html


           FORCE CONSTANT IN CARTESIAN COORDINATES (Millidynes/A)

    ATOM   CHEMICAL       X               Y               Z
   NUMBER   SYMBOL  FORCE CONSTANT  FORCE CONSTANT  FORCE CONSTANT

      1       C        8.072250        8.078016        8.287857
      2       C        8.714008        8.422042        8.206551
      3       C        8.415443        7.922920        8.439528
      4       C        9.084866        8.064394        8.154683
      5       C        8.082963        8.516191        8.218744
      6       C        7.363746       11.866247        7.492221
      7       C        7.527959        7.613874       11.615726
      8       C       11.730048        3.282952       12.106506
      9       C        8.359262        9.365321        9.699021
     10       C        8.308378        9.986734        9.138829
     11       C       11.770981        2.856757       11.868072
     12       H        1.072013        1.492150        3.447533
     13       H        1.142253        2.370767        2.308439
     14       H        1.315805        1.765131        3.311738
     15       H        4.913897        0.732839        0.751499
     16       H        1.522360        4.033475        0.688969
     17       H        0.898682        1.726515        3.747790
     18       H        5.059482        0.801463        0.876981
     19       H        0.949003        5.102425        0.744054
     20       H        1.774720        1.439243        3.565352
     21       H        0.719614        3.844249        1.887480
     22       H        0.801759        1.833079        3.825330
     23       H        1.183132        0.869665        4.169694
     24       H        2.141008        0.631464        3.691092
     25       H        2.007278        3.836849        0.617393
     26       H        1.040212        0.893321        4.535955
     27       H        5.211049        0.553314        0.715388



 TOTAL CPU TIME:             5.44 SECONDS

 == MOPAC DONE ==
